 Entering Gaussian System, Link 0=g16
 Input=NicPyrNa3h7R.gjf
 Output=NicPyrNa3h7R.log
 Initial command:
 /sw/contrib/gaussian/g16/A03/g16/l1.exe "/gscratch/scrubbed/gds001/Gau-29344.inp" -scrdir="/gscratch/scrubbed/gds001/"
 Entering Link 1 = /sw/contrib/gaussian/g16/A03/g16/l1.exe PID=     29345.
  
 Copyright (c) 1988,1990,1992,1993,1995,1998,2003,2009,2016,
            Gaussian, Inc.  All Rights Reserved.
  
 This is part of the Gaussian(R) 16 program.  It is based on
 the Gaussian(R) 09 system (copyright 2009, Gaussian, Inc.),
 the Gaussian(R) 03 system (copyright 2003, Gaussian, Inc.),
 the Gaussian(R) 98 system (copyright 1998, Gaussian, Inc.),
 the Gaussian(R) 94 system (copyright 1995, Gaussian, Inc.),
 the Gaussian 92(TM) system (copyright 1992, Gaussian, Inc.),
 the Gaussian 90(TM) system (copyright 1990, Gaussian, Inc.),
 the Gaussian 88(TM) system (copyright 1988, Gaussian, Inc.),
 the Gaussian 86(TM) system (copyright 1986, Carnegie Mellon
 University), and the Gaussian 82(TM) system (copyright 1983,
 Carnegie Mellon University). Gaussian is a federally registered
 trademark of Gaussian, Inc.
  
 This software contains proprietary and confidential information,
 including trade secrets, belonging to Gaussian, Inc.
  
 This software is provided under written license and may be
 used, copied, transmitted, or stored only in accord with that
 written license.
  
 The following legend is applicable only to US Government
 contracts under FAR:
  
                    RESTRICTED RIGHTS LEGEND
  
 Use, reproduction and disclosure by the US Government is
 subject to restrictions as set forth in subparagraphs (a)
 and (c) of the Commercial Computer Software - Restricted
 Rights clause in FAR 52.227-19.
  
 Gaussian, Inc.
 340 Quinnipiac St., Bldg. 40, Wallingford CT 06492
  
  
 ---------------------------------------------------------------
 Warning -- This program may not be used in any manner that
 competes with the business of Gaussian, Inc. or will provide
 assistance to any competitor of Gaussian, Inc.  The licensee
 of this program is prohibited from giving any competitor of
 Gaussian, Inc. access to this program.  By using this program,
 the user acknowledges that Gaussian, Inc. is engaged in the
 business of creating and licensing software in the field of
 computational chemistry and represents and warrants to the
 licensee that it is not a competitor of Gaussian, Inc. and that
 it will not use this program in any manner prohibited above.
 ---------------------------------------------------------------
  

 Cite this work as:
 Gaussian 16, Revision A.03,
 M. J. Frisch, G. W. Trucks, H. B. Schlegel, G. E. Scuseria, 
 M. A. Robb, J. R. Cheeseman, G. Scalmani, V. Barone, 
 G. A. Petersson, H. Nakatsuji, X. Li, M. Caricato, A. V. Marenich, 
 J. Bloino, B. G. Janesko, R. Gomperts, B. Mennucci, H. P. Hratchian, 
 J. V. Ortiz, A. F. Izmaylov, J. L. Sonnenberg, D. Williams-Young, 
 F. Ding, F. Lipparini, F. Egidi, J. Goings, B. Peng, A. Petrone, 
 T. Henderson, D. Ranasinghe, V. G. Zakrzewski, J. Gao, N. Rega, 
 G. Zheng, W. Liang, M. Hada, M. Ehara, K. Toyota, R. Fukuda, 
 J. Hasegawa, M. Ishida, T. Nakajima, Y. Honda, O. Kitao, H. Nakai, 
 T. Vreven, K. Throssell, J. A. Montgomery, Jr., J. E. Peralta, 
 F. Ogliaro, M. J. Bearpark, J. J. Heyd, E. N. Brothers, K. N. Kudin, 
 V. N. Staroverov, T. A. Keith, R. Kobayashi, J. Normand, 
 K. Raghavachari, A. P. Rendell, J. C. Burant, S. S. Iyengar, 
 J. Tomasi, M. Cossi, J. M. Millam, M. Klene, C. Adamo, R. Cammi, 
 J. W. Ochterski, R. L. Martin, K. Morokuma, O. Farkas, 
 J. B. Foresman, and D. J. Fox, Gaussian, Inc., Wallingford CT, 2016.
 
 ******************************************
 Gaussian 16:  ES64L-G16RevA.03 25-Dec-2016
                27-Jan-2023 
 ******************************************
 %nprocshared=28
 Will use up to   28 processors via shared memory.
 %mem=41GB
 -----------------------------
 # wB97XD/aug-cc-pVDZ opt freq
 -----------------------------
 1/18=20,19=15,26=3,38=1/1,3;
 2/9=110,12=2,17=6,18=5,40=1/2;
 3/5=16,7=10,11=2,25=1,30=1,71=1,74=-58/1,2,3;
 4//1;
 5/5=2,38=5/2;
 6/7=2,8=2,9=2,10=2,28=1/1;
 7//1,2,3,16;
 1/18=20,19=15,26=3/3(2);
 2/9=110/2;
 99//99;
 2/9=110/2;
 3/5=16,7=10,11=2,25=1,30=1,71=1,74=-58/1,2,3;
 4/5=5,16=3,69=1/1;
 5/5=2,38=5/2;
 7//1,2,3,16;
 1/18=20,19=15,26=3/3(-5);
 2/9=110/2;
 6/7=2,8=2,9=2,10=2,19=2,28=1/1;
 99/9=1/99;
 ----
 blah
 ----
 Symbolic Z-matrix:
 Charge =  1 Multiplicity = 1
 C                     1.21925  -0.18266  -0.26 
 C                     0.30959  -1.23409  -0.37769 
 C                     0.80724  -2.53374  -0.26996 
 C                     2.16736  -2.72395  -0.04955 
 C                     2.9864   -1.60294   0.06507 
 N                     2.52309  -0.35351  -0.03698 
 C                    -1.15655  -0.96915  -0.60043 
 C                    -1.53841   0.05282  -1.67754 
 C                    -2.92496   0.59539  -1.25446 
 C                    -3.18038   0.02244   0.14686 
 N                    -1.83183  -0.40703   0.62934 
 O                    -0.90659   2.02028   1.36631 
 H                    -3.81609  -0.87074   0.12255 
 H                    -3.71722   0.28213  -1.94091 
 H                    -2.92063   1.68918  -1.22939 
 H                    -0.8019    0.86298  -1.71267 
 H                    -1.54753  -0.42429  -2.66178 
 H                    -3.59442   0.74019   0.86063 
 H                    -1.66981  -1.92231  -0.79118 
 H                     0.88895   0.8516   -0.35347 
 H                     4.05653  -1.71089   0.2433 
 H                     2.59112  -3.7229    0.03226 
 H                     0.14071  -3.39239  -0.36454 
 C                    -1.86047  -1.31278   1.79542 
 H                    -1.33526   0.47457   0.91856 
 H                    -0.11905   1.7647    1.852 
 H                    -0.77561   2.96358   1.10168 
 H                     3.39361   1.07469   0.56982 
 O                     3.83935   1.38946   1.38377 
 H                     4.75408   1.56793   1.15719 
 O                     1.42866   1.27807   2.93968 
 H                     2.20047   1.58679   2.41055 
 H                     1.55711   1.59685   3.83573 
 H                    -2.39386  -0.81862   2.61299 
 H                    -0.83405  -1.53278   2.1029 
 H                    -2.37806  -2.23828   1.52063 
 
 Add virtual bond connecting atoms H25        and O12        Dist= 3.15D+00.
 Add virtual bond connecting atoms H28        and N6         Dist= 3.36D+00.
 Add virtual bond connecting atoms O31        and H26        Dist= 3.69D+00.
 Add virtual bond connecting atoms H32        and O29        Dist= 3.67D+00.

 GradGradGradGradGradGradGradGradGradGradGradGradGradGradGradGradGradGrad
 Berny optimization.
 Initialization pass.
                           ----------------------------
                           !    Initial Parameters    !
                           ! (Angstroms and Degrees)  !
 --------------------------                            --------------------------
 ! Name  Definition              Value          Derivative Info.                !
 --------------------------------------------------------------------------------
 ! R1    R(1,2)                  1.3953         estimate D2E/DX2                !
 ! R2    R(1,6)                  1.3338         estimate D2E/DX2                !
 ! R3    R(1,20)                 1.0897         estimate D2E/DX2                !
 ! R4    R(2,3)                  1.3958         estimate D2E/DX2                !
 ! R5    R(2,7)                  1.5064         estimate D2E/DX2                !
 ! R6    R(3,4)                  1.3909         estimate D2E/DX2                !
 ! R7    R(3,23)                 1.0911         estimate D2E/DX2                !
 ! R8    R(4,5)                  1.3931         estimate D2E/DX2                !
 ! R9    R(4,22)                 1.0882         estimate D2E/DX2                !
 ! R10   R(5,6)                  1.3365         estimate D2E/DX2                !
 ! R11   R(5,21)                 1.0902         estimate D2E/DX2                !
 ! R12   R(6,28)                 1.7793         estimate D2E/DX2                !
 ! R13   R(7,8)                  1.5331         estimate D2E/DX2                !
 ! R14   R(7,11)                 1.5114         estimate D2E/DX2                !
 ! R15   R(7,19)                 1.0992         estimate D2E/DX2                !
 ! R16   R(8,9)                  1.5479         estimate D2E/DX2                !
 ! R17   R(8,16)                 1.0955         estimate D2E/DX2                !
 ! R18   R(8,17)                 1.0938         estimate D2E/DX2                !
 ! R19   R(9,10)                 1.5353         estimate D2E/DX2                !
 ! R20   R(9,14)                 1.0941         estimate D2E/DX2                !
 ! R21   R(9,15)                 1.0941         estimate D2E/DX2                !
 ! R22   R(10,11)                1.4953         estimate D2E/DX2                !
 ! R23   R(10,13)                1.0966         estimate D2E/DX2                !
 ! R24   R(10,18)                1.0936         estimate D2E/DX2                !
 ! R25   R(11,24)                1.4768         estimate D2E/DX2                !
 ! R26   R(11,25)                1.0524         estimate D2E/DX2                !
 ! R27   R(12,25)                1.6654         estimate D2E/DX2                !
 ! R28   R(12,26)                0.9599         estimate D2E/DX2                !
 ! R29   R(12,27)                0.9884         estimate D2E/DX2                !
 ! R30   R(24,34)                1.0941         estimate D2E/DX2                !
 ! R31   R(24,35)                1.0938         estimate D2E/DX2                !
 ! R32   R(24,36)                1.0954         estimate D2E/DX2                !
 ! R33   R(26,31)                1.9533         estimate D2E/DX2                !
 ! R34   R(28,29)                0.9799         estimate D2E/DX2                !
 ! R35   R(29,30)                0.9591         estimate D2E/DX2                !
 ! R36   R(29,32)                1.944          estimate D2E/DX2                !
 ! R37   R(31,32)                0.9854         estimate D2E/DX2                !
 ! R38   R(31,33)                0.9597         estimate D2E/DX2                !
 ! A1    A(2,1,6)              123.7037         estimate D2E/DX2                !
 ! A2    A(2,1,20)             120.6871         estimate D2E/DX2                !
 ! A3    A(6,1,20)             115.6086         estimate D2E/DX2                !
 ! A4    A(1,2,3)              117.5605         estimate D2E/DX2                !
 ! A5    A(1,2,7)              120.9608         estimate D2E/DX2                !
 ! A6    A(3,2,7)              121.4765         estimate D2E/DX2                !
 ! A7    A(2,3,4)              119.2214         estimate D2E/DX2                !
 ! A8    A(2,3,23)             120.5476         estimate D2E/DX2                !
 ! A9    A(4,3,23)             120.2294         estimate D2E/DX2                !
 ! A10   A(3,4,5)              118.5489         estimate D2E/DX2                !
 ! A11   A(3,4,22)             121.2145         estimate D2E/DX2                !
 ! A12   A(5,4,22)             120.2366         estimate D2E/DX2                !
 ! A13   A(4,5,6)              122.8333         estimate D2E/DX2                !
 ! A14   A(4,5,21)             120.7221         estimate D2E/DX2                !
 ! A15   A(6,5,21)             116.4444         estimate D2E/DX2                !
 ! A16   A(1,6,5)              118.1262         estimate D2E/DX2                !
 ! A17   A(1,6,28)             115.6255         estimate D2E/DX2                !
 ! A18   A(5,6,28)             123.6944         estimate D2E/DX2                !
 ! A19   A(2,7,8)              117.6151         estimate D2E/DX2                !
 ! A20   A(2,7,11)             112.33           estimate D2E/DX2                !
 ! A21   A(2,7,19)             109.1224         estimate D2E/DX2                !
 ! A22   A(8,7,11)             102.2661         estimate D2E/DX2                !
 ! A23   A(8,7,19)             109.8644         estimate D2E/DX2                !
 ! A24   A(11,7,19)            104.7779         estimate D2E/DX2                !
 ! A25   A(7,8,9)              105.3518         estimate D2E/DX2                !
 ! A26   A(7,8,16)             110.3692         estimate D2E/DX2                !
 ! A27   A(7,8,17)             110.0904         estimate D2E/DX2                !
 ! A28   A(9,8,16)             110.5965         estimate D2E/DX2                !
 ! A29   A(9,8,17)             113.0399         estimate D2E/DX2                !
 ! A30   A(16,8,17)            107.4174         estimate D2E/DX2                !
 ! A31   A(8,9,10)             105.527          estimate D2E/DX2                !
 ! A32   A(8,9,14)             112.1361         estimate D2E/DX2                !
 ! A33   A(8,9,15)             110.6805         estimate D2E/DX2                !
 ! A34   A(10,9,14)            110.2025         estimate D2E/DX2                !
 ! A35   A(10,9,15)            110.6599         estimate D2E/DX2                !
 ! A36   A(14,9,15)            107.6668         estimate D2E/DX2                !
 ! A37   A(9,10,11)            104.5753         estimate D2E/DX2                !
 ! A38   A(9,10,13)            112.3444         estimate D2E/DX2                !
 ! A39   A(9,10,18)            114.4411         estimate D2E/DX2                !
 ! A40   A(11,10,13)           107.2202         estimate D2E/DX2                !
 ! A41   A(11,10,18)           108.6236         estimate D2E/DX2                !
 ! A42   A(13,10,18)           109.2416         estimate D2E/DX2                !
 ! A43   A(7,11,10)            104.3135         estimate D2E/DX2                !
 ! A44   A(7,11,24)            115.0262         estimate D2E/DX2                !
 ! A45   A(7,11,25)            108.927          estimate D2E/DX2                !
 ! A46   A(10,11,24)           114.4218         estimate D2E/DX2                !
 ! A47   A(10,11,25)           105.8805         estimate D2E/DX2                !
 ! A48   A(24,11,25)           107.815          estimate D2E/DX2                !
 ! A49   A(25,12,26)            95.7438         estimate D2E/DX2                !
 ! A50   A(25,12,27)           147.9842         estimate D2E/DX2                !
 ! A51   A(26,12,27)           106.3103         estimate D2E/DX2                !
 ! A52   A(11,24,34)           108.8123         estimate D2E/DX2                !
 ! A53   A(11,24,35)           109.0938         estimate D2E/DX2                !
 ! A54   A(11,24,36)           109.2239         estimate D2E/DX2                !
 ! A55   A(34,24,35)           109.7702         estimate D2E/DX2                !
 ! A56   A(34,24,36)           109.7965         estimate D2E/DX2                !
 ! A57   A(35,24,36)           110.119          estimate D2E/DX2                !
 ! A58   A(6,28,29)            139.7875         estimate D2E/DX2                !
 ! A59   A(28,29,30)           107.2992         estimate D2E/DX2                !
 ! A60   A(28,29,32)            95.04           estimate D2E/DX2                !
 ! A61   A(30,29,32)           155.4923         estimate D2E/DX2                !
 ! A62   A(26,31,32)           104.0967         estimate D2E/DX2                !
 ! A63   A(26,31,33)           122.9027         estimate D2E/DX2                !
 ! A64   A(32,31,33)           107.0051         estimate D2E/DX2                !
 ! A65   A(29,32,31)           155.8024         estimate D2E/DX2                !
 ! A66   L(11,25,12,1,-1)      191.9263         estimate D2E/DX2                !
 ! A67   L(12,26,31,1,-1)      183.2589         estimate D2E/DX2                !
 ! A68   L(11,25,12,1,-2)      173.9452         estimate D2E/DX2                !
 ! A69   L(12,26,31,1,-2)      181.2071         estimate D2E/DX2                !
 ! D1    D(6,1,2,3)             -0.7937         estimate D2E/DX2                !
 ! D2    D(6,1,2,7)            178.6702         estimate D2E/DX2                !
 ! D3    D(20,1,2,3)           178.9129         estimate D2E/DX2                !
 ! D4    D(20,1,2,7)            -1.6232         estimate D2E/DX2                !
 ! D5    D(2,1,6,5)              0.7529         estimate D2E/DX2                !
 ! D6    D(2,1,6,28)          -161.8147         estimate D2E/DX2                !
 ! D7    D(20,1,6,5)          -178.9673         estimate D2E/DX2                !
 ! D8    D(20,1,6,28)           18.4651         estimate D2E/DX2                !
 ! D9    D(1,2,3,4)              0.1731         estimate D2E/DX2                !
 ! D10   D(1,2,3,23)          -179.3745         estimate D2E/DX2                !
 ! D11   D(7,2,3,4)           -179.2879         estimate D2E/DX2                !
 ! D12   D(7,2,3,23)             1.1645         estimate D2E/DX2                !
 ! D13   D(1,2,7,8)             46.9034         estimate D2E/DX2                !
 ! D14   D(1,2,7,11)           -71.3956         estimate D2E/DX2                !
 ! D15   D(1,2,7,19)           172.8657         estimate D2E/DX2                !
 ! D16   D(3,2,7,8)           -133.6539         estimate D2E/DX2                !
 ! D17   D(3,2,7,11)           108.0472         estimate D2E/DX2                !
 ! D18   D(3,2,7,19)            -7.6916         estimate D2E/DX2                !
 ! D19   D(2,3,4,5)              0.4203         estimate D2E/DX2                !
 ! D20   D(2,3,4,22)          -179.5413         estimate D2E/DX2                !
 ! D21   D(23,3,4,5)           179.9695         estimate D2E/DX2                !
 ! D22   D(23,3,4,22)            0.0078         estimate D2E/DX2                !
 ! D23   D(3,4,5,6)             -0.4839         estimate D2E/DX2                !
 ! D24   D(3,4,5,21)           179.6732         estimate D2E/DX2                !
 ! D25   D(22,4,5,6)           179.4781         estimate D2E/DX2                !
 ! D26   D(22,4,5,21)           -0.3648         estimate D2E/DX2                !
 ! D27   D(4,5,6,1)             -0.0928         estimate D2E/DX2                !
 ! D28   D(4,5,6,28)           160.9626         estimate D2E/DX2                !
 ! D29   D(21,5,6,1)           179.7564         estimate D2E/DX2                !
 ! D30   D(21,5,6,28)          -19.1882         estimate D2E/DX2                !
 ! D31   D(1,6,28,29)          111.3714         estimate D2E/DX2                !
 ! D32   D(5,6,28,29)          -50.1138         estimate D2E/DX2                !
 ! D33   D(2,7,8,9)           -154.3607         estimate D2E/DX2                !
 ! D34   D(2,7,8,16)           -34.9499         estimate D2E/DX2                !
 ! D35   D(2,7,8,17)            83.4605         estimate D2E/DX2                !
 ! D36   D(11,7,8,9)           -30.8192         estimate D2E/DX2                !
 ! D37   D(11,7,8,16)           88.5916         estimate D2E/DX2                !
 ! D38   D(11,7,8,17)         -152.9981         estimate D2E/DX2                !
 ! D39   D(19,7,8,9)            80.0415         estimate D2E/DX2                !
 ! D40   D(19,7,8,16)         -160.5478         estimate D2E/DX2                !
 ! D41   D(19,7,8,17)          -42.1374         estimate D2E/DX2                !
 ! D42   D(2,7,11,10)          169.7682         estimate D2E/DX2                !
 ! D43   D(2,7,11,24)          -64.0729         estimate D2E/DX2                !
 ! D44   D(2,7,11,25)           57.0605         estimate D2E/DX2                !
 ! D45   D(8,7,11,10)           42.7466         estimate D2E/DX2                !
 ! D46   D(8,7,11,24)          168.9055         estimate D2E/DX2                !
 ! D47   D(8,7,11,25)          -69.9611         estimate D2E/DX2                !
 ! D48   D(19,7,11,10)         -71.8976         estimate D2E/DX2                !
 ! D49   D(19,7,11,24)          54.2613         estimate D2E/DX2                !
 ! D50   D(19,7,11,25)         175.3947         estimate D2E/DX2                !
 ! D51   D(7,8,9,10)             8.2782         estimate D2E/DX2                !
 ! D52   D(7,8,9,14)          -111.7192         estimate D2E/DX2                !
 ! D53   D(7,8,9,15)           128.0324         estimate D2E/DX2                !
 ! D54   D(16,8,9,10)         -110.9814         estimate D2E/DX2                !
 ! D55   D(16,8,9,14)          129.0212         estimate D2E/DX2                !
 ! D56   D(16,8,9,15)            8.7728         estimate D2E/DX2                !
 ! D57   D(17,8,9,10)          128.5333         estimate D2E/DX2                !
 ! D58   D(17,8,9,14)            8.536          estimate D2E/DX2                !
 ! D59   D(17,8,9,15)         -111.7125         estimate D2E/DX2                !
 ! D60   D(8,9,10,11)           17.8249         estimate D2E/DX2                !
 ! D61   D(8,9,10,13)          -98.1259         estimate D2E/DX2                !
 ! D62   D(8,9,10,18)          136.551          estimate D2E/DX2                !
 ! D63   D(14,9,10,11)         139.087          estimate D2E/DX2                !
 ! D64   D(14,9,10,13)          23.1362         estimate D2E/DX2                !
 ! D65   D(14,9,10,18)        -102.1869         estimate D2E/DX2                !
 ! D66   D(15,9,10,11)        -101.9429         estimate D2E/DX2                !
 ! D67   D(15,9,10,13)         142.1063         estimate D2E/DX2                !
 ! D68   D(15,9,10,18)          16.7832         estimate D2E/DX2                !
 ! D69   D(9,10,11,7)          -37.8579         estimate D2E/DX2                !
 ! D70   D(9,10,11,24)        -164.395          estimate D2E/DX2                !
 ! D71   D(9,10,11,25)          77.0162         estimate D2E/DX2                !
 ! D72   D(13,10,11,7)          81.6037         estimate D2E/DX2                !
 ! D73   D(13,10,11,24)        -44.9334         estimate D2E/DX2                !
 ! D74   D(13,10,11,25)       -163.5223         estimate D2E/DX2                !
 ! D75   D(18,10,11,7)        -160.4574         estimate D2E/DX2                !
 ! D76   D(18,10,11,24)         73.0055         estimate D2E/DX2                !
 ! D77   D(18,10,11,25)        -45.5834         estimate D2E/DX2                !
 ! D78   D(7,11,12,26)         -81.9255         estimate D2E/DX2                !
 ! D79   D(7,11,12,27)          59.7507         estimate D2E/DX2                !
 ! D80   D(10,11,12,26)        168.5237         estimate D2E/DX2                !
 ! D81   D(10,11,12,27)        -49.8            estimate D2E/DX2                !
 ! D82   D(24,11,12,26)         48.821          estimate D2E/DX2                !
 ! D83   D(24,11,12,27)       -169.5027         estimate D2E/DX2                !
 ! D84   D(7,11,24,34)        -178.3907         estimate D2E/DX2                !
 ! D85   D(7,11,24,35)          61.8692         estimate D2E/DX2                !
 ! D86   D(7,11,24,36)         -58.5418         estimate D2E/DX2                !
 ! D87   D(10,11,24,34)        -57.6171         estimate D2E/DX2                !
 ! D88   D(10,11,24,35)       -177.3572         estimate D2E/DX2                !
 ! D89   D(10,11,24,36)         62.2318         estimate D2E/DX2                !
 ! D90   D(25,11,24,34)         59.8717         estimate D2E/DX2                !
 ! D91   D(25,11,24,35)        -59.8683         estimate D2E/DX2                !
 ! D92   D(25,11,24,36)        179.7206         estimate D2E/DX2                !
 ! D93   D(25,12,31,32)        109.3716         estimate D2E/DX2                !
 ! D94   D(25,12,31,33)       -129.1634         estimate D2E/DX2                !
 ! D95   D(27,12,31,32)        -48.0855         estimate D2E/DX2                !
 ! D96   D(27,12,31,33)         73.3794         estimate D2E/DX2                !
 ! D97   D(6,28,29,30)         120.0131         estimate D2E/DX2                !
 ! D98   D(6,28,29,32)         -70.1912         estimate D2E/DX2                !
 ! D99   D(28,29,32,31)         77.1185         estimate D2E/DX2                !
 ! D100  D(30,29,32,31)       -126.9457         estimate D2E/DX2                !
 ! D101  D(26,31,32,29)       -116.441          estimate D2E/DX2                !
 ! D102  D(33,31,32,29)        112.0691         estimate D2E/DX2                !
 --------------------------------------------------------------------------------
 Trust Radius=3.00D-01 FncErr=1.00D-07 GrdErr=1.00D-06 EigMax=2.50D+02 EigMin=1.00D-04
 Number of steps in this run=    216 maximum allowed number of steps=    216.
 GradGradGradGradGradGradGradGradGradGradGradGradGradGradGradGradGradGrad

                          Input orientation:                          
 ---------------------------------------------------------------------
 Center     Atomic      Atomic             Coordinates (Angstroms)
 Number     Number       Type             X           Y           Z
 ---------------------------------------------------------------------
      1          6           0        1.219251   -0.182655   -0.260004
      2          6           0        0.309587   -1.234086   -0.377687
      3          6           0        0.807235   -2.533738   -0.269963
      4          6           0        2.167361   -2.723953   -0.049549
      5          6           0        2.986402   -1.602939    0.065073
      6          7           0        2.523088   -0.353508   -0.036976
      7          6           0       -1.156549   -0.969146   -0.600427
      8          6           0       -1.538407    0.052820   -1.677538
      9          6           0       -2.924956    0.595388   -1.254460
     10          6           0       -3.180383    0.022439    0.146861
     11          7           0       -1.831829   -0.407033    0.629344
     12          8           0       -0.906594    2.020284    1.366305
     13          1           0       -3.816088   -0.870736    0.122553
     14          1           0       -3.717221    0.282128   -1.940913
     15          1           0       -2.920634    1.689179   -1.229389
     16          1           0       -0.801904    0.862980   -1.712674
     17          1           0       -1.547528   -0.424287   -2.661780
     18          1           0       -3.594422    0.740186    0.860625
     19          1           0       -1.669810   -1.922308   -0.791183
     20          1           0        0.888951    0.851597   -0.353471
     21          1           0        4.056529   -1.710888    0.243295
     22          1           0        2.591124   -3.722902    0.032264
     23          1           0        0.140706   -3.392392   -0.364536
     24          6           0       -1.860466   -1.312777    1.795423
     25          1           0       -1.335257    0.474568    0.918563
     26          1           0       -0.119046    1.764695    1.852003
     27          1           0       -0.775606    2.963583    1.101678
     28          1           0        3.393612    1.074692    0.569824
     29          8           0        3.839346    1.389458    1.383770
     30          1           0        4.754077    1.567929    1.157194
     31          8           0        1.428663    1.278066    2.939677
     32          1           0        2.200474    1.586793    2.410548
     33          1           0        1.557114    1.596853    3.835734
     34          1           0       -2.393857   -0.818623    2.612989
     35          1           0       -0.834049   -1.532778    2.102901
     36          1           0       -2.378063   -2.238276    1.520628
 ---------------------------------------------------------------------
                    Distance matrix (angstroms):
                    1          2          3          4          5
     1  C    0.000000
     2  C    1.395294   0.000000
     3  C    2.386933   1.395834   0.000000
     4  C    2.720551   2.403893   1.390937   0.000000
     5  C    2.290350   2.738143   2.393200   1.393068   0.000000
     6  N    1.333763   2.406468   2.784212   2.397021   1.336470
     7  C    2.525645   1.506440   2.532509   3.798841   4.243657
     8  C    3.109587   2.600158   3.764782   4.908516   5.123683
     9  C    4.332291   3.818111   4.968895   6.196897   6.443443
    10  C    4.423164   3.746184   4.754880   6.014949   6.377913
    11  N    3.185965   2.506749   3.506606   4.671460   4.996393
    12  O    3.466560   3.887355   5.133585   5.827660   5.475068
    13  H    5.096513   4.171745   4.928971   6.266234   6.842024
    14  H    5.235478   4.577965   5.584969   6.873288   7.246794
    15  H    4.645656   4.439054   5.714065   6.837796   6.885256
    16  H    2.699754   2.723103   4.025970   4.944553   4.857201
    17  H    3.671782   3.053151   3.964276   5.090443   5.420468
    18  H    5.027812   4.546697   5.601017   6.784307   7.030674
    19  H    3.413974   2.136034   2.604087   3.989553   4.745048
    20  H    1.089730   2.164792   3.387351   3.809365   3.255645
    21  H    3.261741   3.827863   3.390933   2.163565   1.090224
    22  H    3.807992   3.401129   2.165113   1.088195   2.156749
    23  H    3.387713   2.164943   1.091097   2.157164   3.388907
    24  C    3.871255   3.072089   3.587923   4.649595   5.154652
    25  H    2.889026   2.702827   3.879790   4.841086   4.870443
    26  H    3.169193   3.761374   4.882342   5.384377   4.917101
    27  H    3.966415   4.581112   5.882799   6.506492   6.006694
    28  H    2.645257   3.967297   4.518336   4.039433   2.755050
    29  O    3.469643   4.737606   5.226853   4.665842   3.379484
    30  H    4.191419   5.473632   5.868391   5.154375   3.791017
    31  O    3.523566   4.309077   5.021734   5.049486   4.357762
    32  H    3.350462   4.393981   5.109309   4.963437   4.036500
    33  H    4.478378   5.227184   5.872039   5.842704   5.147758
    34  H    4.659731   4.052821   4.636812   5.614633   6.004516
    35  H    3.409134   2.747806   3.053886   3.880773   4.330532
    36  H    4.509645   3.440270   3.666011   4.833448   5.594620
                    6          7          8          9         10
     6  N    0.000000
     7  C    3.773091   0.000000
     8  C    4.399124   1.533101   0.000000
     9  C    5.662495   2.450059   1.547867   0.000000
    10  C    5.718804   2.374360   2.454677   1.535322   0.000000
    11  N    4.405922   1.511394   2.370499   2.397601   1.495271
    12  O    4.400773   3.587089   3.679006   3.601739   3.263211
    13  H    6.362242   2.757813   3.046492   2.199955   1.096573
    14  H    6.555186   3.149544   2.206622   1.094090   2.171275
    15  H    5.935363   3.251812   2.188392   1.094087   2.177052
    16  H    3.917063   2.172453   1.095459   2.188359   3.133934
    17  H    4.844019   2.167697   1.093822   2.217565   3.279366
    18  H    6.278995   3.316582   3.337955   2.223226   1.093640
    19  H    4.539863   1.099246   2.168876   2.851107   2.635109
    20  H    2.054958   2.749575   2.878066   3.927252   4.182979
    21  H    2.066996   5.332751   6.172809   7.503553   7.442219
    22  H    3.370792   4.693455   5.850857   7.122529   6.881207
    23  H    3.875288   2.758738   4.051281   5.108095   4.790849
    24  C    4.847002   2.520650   3.745669   3.751802   2.498547
    25  H    4.060245   2.103230   2.637969   2.695138   2.050472
    26  H    3.877615   3.816374   4.171662   4.346323   3.913407
    27  H    4.814666   4.302166   4.096150   3.972334   3.917263
    28  H    1.779263   5.123547   5.515403   6.594092   6.671098
    29  O    2.605567   5.870180   6.330753   7.303874   7.257773
    30  H    3.177306   6.667945   7.065877   8.107371   8.146470
    31  O    3.566548   4.926015   5.623469   6.083653   5.533509
    32  H    3.139940   5.183474   5.748457   6.378495   6.043601
    33  H    4.442397   5.798951   6.508644   6.855797   6.207289
    34  H    5.604908   3.446684   4.460922   4.151946   2.721727
    35  H    4.152122   2.780228   4.159563   4.491420   3.427838
    36  H    5.477204   2.757111   4.022736   4.003730   2.764378
                   11         12         13         14         15
    11  N    0.000000
    12  O    2.700192   0.000000
    13  H    2.099796   4.286032   0.000000
    14  H    3.261268   4.675308   2.365748   0.000000
    15  H    3.005743   3.302062   3.030305   1.766525   0.000000
    16  H    2.856349   3.290961   3.931811   2.981368   2.324906
    17  H    3.303426   4.755228   3.619142   2.392956   2.898949
    18  H    2.115735   3.019732   1.785765   2.841393   2.392224
    19  H    2.083316   4.558649   2.558755   3.220762   3.847002
    20  H    3.154793   2.747261   5.032934   4.905210   3.997714
    21  H    6.043330   6.309943   7.918240   8.317095   7.900004
    22  H    5.560036   6.855500   7.013941   7.728448   7.826996
    23  H    3.713632   5.778383   4.717226   5.556137   5.995176
    24  C    1.476798   3.493324   2.611197   4.466707   4.391490
    25  H    1.052355   1.665372   2.932234   3.726579   2.932984
    26  H    3.024058   0.959927   4.858458   5.434251   4.165282
    27  H    3.563672   0.988432   4.990512   5.010055   3.414545
    28  H    5.431785   4.474405   7.480944   7.582606   6.594276
    29  O    5.996562   4.787713   8.081139   8.329549   7.253672
    30  H    6.895887   5.682566   8.970245   9.111227   8.038139
    31  O    4.336820   2.912012   6.329372   7.161855   6.038751
    32  H    4.838130   3.306392   6.890094   7.460327   6.283739
    33  H    5.077541   3.513862   6.981977   7.932008   6.761229
    34  H    2.102410   3.438832   2.868402   4.868364   4.618488
    35  H    2.105763   3.629337   3.640417   5.287627   5.083208
    36  H    2.108604   4.508256   2.427487   4.486429   4.825130
                   16         17         18         19         20
    16  H    0.000000
    17  H    1.764600   0.000000
    18  H    3.799356   4.237111   0.000000
    19  H    3.059450   2.399615   3.677156   0.000000
    20  H    2.169459   3.590627   4.646189   3.799131   0.000000
    21  H    5.835665   6.442069   8.057662   5.822869   4.117768
    22  H    5.965548   5.938617   7.672439   4.698485   4.896144
    23  H    4.562256   4.115472   5.703543   2.370895   4.309459
    24  C    4.261598   4.555656   2.845190   2.664284   4.106282
    25  H    2.712699   3.697547   2.275464   2.963135   2.589850
    26  H    3.739827   5.215980   3.756420   4.794298   2.591124
    27  H    3.511951   5.122220   3.598239   5.315491   3.057563
    28  H    4.780897   6.091393   7.002077   6.039255   2.678726
    29  O    5.604136   6.976715   7.480383   6.785942   3.465852
    30  H    6.293014   7.633067   8.394674   7.565993   4.211228
    31  O    5.176108   6.567499   5.462889   5.810529   3.364222
    32  H    5.151616   6.619704   6.058038   6.127314   3.146492
    33  H    6.073579   7.479404   6.010281   6.648751   4.307120
    34  H    4.906472   5.356768   2.634772   3.651130   4.729307
    35  H    4.505475   4.943682   3.785403   3.037425   3.832458
    36  H    4.749348   4.633884   3.284261   2.438427   4.871647
                   21         22         23         24         25
    21  H    0.000000
    22  H    2.498028   0.000000
    23  H    4.304716   2.504243   0.000000
    24  C    6.130124   5.360418   3.604845   0.000000
    25  H    5.856924   5.815561   4.333381   2.058963   0.000000
    26  H    5.665955   6.385154   5.619258   3.536464   2.003724
    27  H    6.777686   7.562248   6.586943   4.466034   2.557720
    28  H    2.881933   4.893860   5.604397   5.899783   4.779537
    29  O    3.310588   5.433309   6.293059   6.321344   5.275410
    30  H    3.474539   5.825524   6.942884   7.242789   6.191315
    31  O    4.807287   5.900343   5.864285   4.340524   3.517068
    32  H    4.360806   5.831098   6.061025   5.027636   3.995555
    33  H    5.485785   6.620827   6.673907   4.930382   4.258546
    34  H    6.929579   6.320207   4.681234   1.094124   2.379928
    35  H    5.235228   4.562454   3.239839   1.093835   2.383968
    36  H    6.581314   5.395569   3.351123   1.095430   2.968072
                   26         27         28         29         30
    26  H    0.000000
    27  H    1.559292   0.000000
    28  H    3.802480   4.607945   0.000000
    29  O    4.003612   4.884182   0.979930   0.000000
    30  H    4.926338   5.703362   1.561778   0.959126   0.000000
    31  O    1.953265   3.328365   3.085221   2.871350   3.784131
    32  H    2.392445   3.530686   2.252575   1.943995   2.844669
    33  H    2.602474   3.845074   3.783060   3.356147   4.170849
    34  H    3.525251   4.382679   6.422925   6.726025   7.675150
    35  H    3.383417   4.606856   5.198302   5.558528   6.460333
    36  H    4.608334   5.459187   6.722501   7.199677   8.092386
                   31         32         33         34         35
    31  O    0.000000
    32  H    0.985384   0.000000
    33  H    0.959709   1.563703   0.000000
    34  H    4.372012   5.189883   4.789551   0.000000
    35  H    3.704174   4.362878   4.302901   1.789751   0.000000
    36  H    5.373037   6.032090   5.962679   1.791345   1.794644
                   36
    36  H    0.000000
 Stoichiometry    C10H21N2O3(1+)
 Framework group  C1[X(C10H21N2O3)]
 Deg. of freedom   102
 Full point group                 C1      NOp   1
 Largest Abelian subgroup         C1      NOp   1
 Largest concise Abelian subgroup C1      NOp   1
                         Standard orientation:                         
 ---------------------------------------------------------------------
 Center     Atomic      Atomic             Coordinates (Angstroms)
 Number     Number       Type             X           Y           Z
 ---------------------------------------------------------------------
      1          6           0        0.946383   -0.400477   -0.749232
      2          6           0        0.045520   -1.258490   -0.117484
      3          6           0        0.571656   -2.343554    0.585488
      4          6           0        1.950674   -2.519826    0.629593
      5          6           0        2.761251   -1.596008   -0.026275
      6          7           0        2.270543   -0.553550   -0.703504
      7          6           0       -1.438772   -1.010187   -0.185167
      8          6           0       -2.043148   -0.685304   -1.556145
      9          6           0       -3.323030    0.132012   -1.256496
     10          6           0       -3.283390    0.419721    0.251107
     11          7           0       -1.859776    0.182552    0.642142
     12          8           0       -0.836940    2.525817   -0.226165
     13          1           0       -3.899197   -0.282375    0.825838
     14          1           0       -4.233164   -0.418695   -1.512248
     15          1           0       -3.328081    1.065221   -1.827568
     16          1           0       -1.339505   -0.094532   -2.152723
     17          1           0       -2.244106   -1.608924   -2.106590
     18          1           0       -3.554521    1.443559    0.523670
     19          1           0       -1.967402   -1.863221    0.263415
     20          1           0        0.590500    0.452449   -1.326619
     21          1           0        3.846662   -1.697049   -0.010156
     22          1           0        2.395285   -3.358407    1.161825
     23          1           0       -0.088948   -3.050925    1.089195
     24          6           0       -1.641044    0.042991    2.095969
     25          1           0       -1.326718    1.029340    0.316181
     26          1           0        0.035588    2.491670    0.172571
     27          1           0       -0.774321    3.166020   -0.976642
     28          1           0        3.226668    0.885255   -1.129463
     29          8           0        3.823070    1.538965   -0.708475
     30          1           0        4.670985    1.479021   -1.152738
     31          8           0        1.776922    2.508513    1.057284
     32          1           0        2.422202    2.411387    0.318932
     33          1           0        2.079063    3.240355    1.599648
     34          1           0       -2.005229    0.945569    2.595800
     35          1           0       -0.570935   -0.079350    2.286689
     36          1           0       -2.191213   -0.831005    2.461224
 ---------------------------------------------------------------------
 Rotational constants (GHZ):           0.6897124           0.3941831           0.3136514
 Standard basis: Aug-CC-pVDZ (5D, 7F)
 There are   564 symmetry adapted cartesian basis functions of A   symmetry.
 There are   534 symmetry adapted basis functions of A   symmetry.
   534 basis functions,   876 primitive gaussians,   564 cartesian basis functions
    59 alpha electrons       59 beta electrons
       nuclear repulsion energy      1105.3581641451 Hartrees.
 NAtoms=   36 NActive=   36 NUniq=   36 SFac= 1.00D+00 NAtFMM=   60 NAOKFM=F Big=F
 Integral buffers will be    131072 words long.
 Raffenetti 2 integral format.
 Two-electron integral symmetry is turned on.
 Nuclear repulsion after empirical dispersion term =     1105.3292133323 Hartrees.
 One-electron integrals computed using PRISM.
 NBasis=   534 RedAO= T EigKep=  2.23D-06  NBF=   534
 NBsUse=   534 1.00D-06 EigRej= -1.00D+00 NBFU=   534
 ExpMin= 2.97D-02 ExpMax= 1.17D+04 ExpMxC= 4.01D+02 IAcc=3 IRadAn=         5 AccDes= 0.00D+00
 Harris functional with IExCor= 4639 and IRadAn=       5 diagonalized for initial guess.
 HarFok:  IExCor= 4639 AccDes= 0.00D+00 IRadAn=         5 IDoV= 1 UseB2=F ITyADJ=14
 ICtDFT=  3500011 ScaDFX=  1.000000  1.000000  1.000000  1.000000
 FoFCou: FMM=F IPFlag=           0 FMFlag=      100000 FMFlg1=           0
         NFxFlg=           0 DoJE=T BraDBF=F KetDBF=T FulRan=T
         wScrn=  0.000000 ICntrl=       500 IOpCl=  0 I1Cent=   200000004 NGrid=           0
         NMat0=    1 NMatS0=      1 NMatT0=    0 NMatD0=    1 NMtDS0=    0 NMtDT0=    0
 Petite list used in FoFCou.
 Requested convergence on RMS density matrix=1.00D-08 within 128 cycles.
 Requested convergence on MAX density matrix=1.00D-06.
 Requested convergence on             energy=1.00D-06.
 No special actions if energy rises.
 SCF Done:  E(RwB97XD) =  -728.583583114     A.U. after   14 cycles
            NFock= 14  Conv=0.82D-08     -V/T= 2.0064

 **********************************************************************

            Population analysis using the SCF density.

 **********************************************************************

 Orbital symmetries:
       Occupied  (A) (A) (A) (A) (A) (A) (A) (A) (A) (A) (A) (A)
                 (A) (A) (A) (A) (A) (A) (A) (A) (A) (A) (A) (A)
                 (A) (A) (A) (A) (A) (A) (A) (A) (A) (A) (A) (A)
                 (A) (A) (A) (A) (A) (A) (A) (A) (A) (A) (A) (A)
                 (A) (A) (A) (A) (A) (A) (A) (A) (A) (A) (A)
       Virtual   (A) (A) (A) (A) (A) (A) (A) (A) (A) (A) (A) (A)
                 (A) (A) (A) (A) (A) (A) (A) (A) (A) (A) (A) (A)
                 (A) (A) (A) (A) (A) (A) (A) (A) (A) (A) (A) (A)
                 (A) (A) (A) (A) (A) (A) (A) (A) (A) (A) (A) (A)
                 (A) (A) (A) (A) (A) (A) (A) (A) (A) (A) (A) (A)
                 (A) (A) (A) (A) (A) (A) (A) (A) (A) (A) (A) (A)
                 (A) (A) (A) (A) (A) (A) (A) (A) (A) (A) (A) (A)
                 (A) (A) (A) (A) (A) (A) (A) (A) (A) (A) (A) (A)
                 (A) (A) (A) (A) (A) (A) (A) (A) (A) (A) (A) (A)
                 (A) (A) (A) (A) (A) (A) (A) (A) (A) (A) (A) (A)
                 (A) (A) (A) (A) (A) (A) (A) (A) (A) (A) (A) (A)
                 (A) (A) (A) (A) (A) (A) (A) (A) (A) (A) (A) (A)
                 (A) (A) (A) (A) (A) (A) (A) (A) (A) (A) (A) (A)
                 (A) (A) (A) (A) (A) (A) (A) (A) (A) (A) (A) (A)
                 (A) (A) (A) (A) (A) (A) (A) (A) (A) (A) (A) (A)
                 (A) (A) (A) (A) (A) (A) (A) (A) (A) (A) (A) (A)
                 (A) (A) (A) (A) (A) (A) (A) (A) (A) (A) (A) (A)
                 (A) (A) (A) (A) (A) (A) (A) (A) (A) (A) (A) (A)
                 (A) (A) (A) (A) (A) (A) (A) (A) (A) (A) (A) (A)
                 (A) (A) (A) (A) (A) (A) (A) (A) (A) (A) (A) (A)
                 (A) (A) (A) (A) (A) (A) (A) (A) (A) (A) (A) (A)
                 (A) (A) (A) (A) (A) (A) (A) (A) (A) (A) (A) (A)
                 (A) (A) (A) (A) (A) (A) (A) (A) (A) (A) (A) (A)
                 (A) (A) (A) (A) (A) (A) (A) (A) (A) (A) (A) (A)
                 (A) (A) (A) (A) (A) (A) (A) (A) (A) (A) (A) (A)
                 (A) (A) (A) (A) (A) (A) (A) (A) (A) (A) (A) (A)
                 (A) (A) (A) (A) (A) (A) (A) (A) (A) (A) (A) (A)
                 (A) (A) (A) (A) (A) (A) (A) (A) (A) (A) (A) (A)
                 (A) (A) (A) (A) (A) (A) (A) (A) (A) (A) (A) (A)
                 (A) (A) (A) (A) (A) (A) (A) (A) (A) (A) (A) (A)
                 (A) (A) (A) (A) (A) (A) (A) (A) (A) (A) (A) (A)
                 (A) (A) (A) (A) (A) (A) (A) (A) (A) (A) (A) (A)
                 (A) (A) (A) (A) (A) (A) (A) (A) (A) (A) (A) (A)
                 (A) (A) (A) (A) (A) (A) (A) (A) (A) (A) (A) (A)
                 (A) (A) (A) (A) (A) (A) (A) (A) (A) (A) (A) (A)
                 (A) (A) (A) (A) (A) (A) (A) (A) (A) (A) (A) (A)
                 (A) (A) (A) (A) (A) (A) (A) (A) (A) (A) (A) (A)
                 (A) (A) (A) (A) (A) (A) (A) (A) (A) (A) (A) (A)
                 (A) (A) (A) (A) (A) (A) (A) (A) (A) (A) (A) (A)
                 (A) (A) (A) (A) (A) (A) (A)
 The electronic state is 1-A.
 Alpha  occ. eigenvalues --  -19.41947 -19.38144 -19.35215 -14.69634 -14.58472
 Alpha  occ. eigenvalues --  -10.50369 -10.48892 -10.48506 -10.47082 -10.46417
 Alpha  occ. eigenvalues --  -10.45604 -10.45415 -10.44545 -10.44292 -10.43731
 Alpha  occ. eigenvalues --   -1.26743  -1.25328  -1.21811  -1.19666  -1.18230
 Alpha  occ. eigenvalues --   -1.06948  -1.04932  -1.01658  -0.97274  -0.94945
 Alpha  occ. eigenvalues --   -0.89685  -0.86207  -0.85674  -0.83727  -0.78585
 Alpha  occ. eigenvalues --   -0.76513  -0.75591  -0.74156  -0.73157  -0.72404
 Alpha  occ. eigenvalues --   -0.70660  -0.69980  -0.69933  -0.66931  -0.66048
 Alpha  occ. eigenvalues --   -0.65630  -0.63592  -0.63076  -0.62748  -0.62246
 Alpha  occ. eigenvalues --   -0.61561  -0.59910  -0.59470  -0.59132  -0.58398
 Alpha  occ. eigenvalues --   -0.57088  -0.56129  -0.55696  -0.54992  -0.51387
 Alpha  occ. eigenvalues --   -0.50265  -0.49094  -0.47202  -0.46926
 Alpha virt. eigenvalues --   -0.09915  -0.09067  -0.07168  -0.06365  -0.05220
 Alpha virt. eigenvalues --   -0.04924  -0.03562  -0.03497  -0.03181  -0.02989
 Alpha virt. eigenvalues --   -0.02643  -0.01658  -0.01502  -0.00896  -0.00695
 Alpha virt. eigenvalues --   -0.00509  -0.00016   0.00396   0.00820   0.01314
 Alpha virt. eigenvalues --    0.01516   0.01600   0.02307   0.02585   0.03086
 Alpha virt. eigenvalues --    0.03300   0.03842   0.04021   0.04342   0.04438
 Alpha virt. eigenvalues --    0.04894   0.05036   0.05369   0.05485   0.05565
 Alpha virt. eigenvalues --    0.05912   0.06063   0.06420   0.06713   0.06902
 Alpha virt. eigenvalues --    0.07153   0.07529   0.07805   0.07869   0.08342
 Alpha virt. eigenvalues --    0.08700   0.08866   0.09188   0.09657   0.09802
 Alpha virt. eigenvalues --    0.10309   0.10491   0.10630   0.10672   0.11426
 Alpha virt. eigenvalues --    0.11856   0.12017   0.12604   0.12703   0.13225
 Alpha virt. eigenvalues --    0.14149   0.14613   0.14775   0.15028   0.15421
 Alpha virt. eigenvalues --    0.15559   0.15763   0.16053   0.16429   0.16572
 Alpha virt. eigenvalues --    0.17256   0.17569   0.17638   0.18024   0.18258
 Alpha virt. eigenvalues --    0.18513   0.18618   0.19002   0.19274   0.19812
 Alpha virt. eigenvalues --    0.19961   0.20582   0.20787   0.20961   0.21385
 Alpha virt. eigenvalues --    0.21753   0.22011   0.22375   0.22580   0.22719
 Alpha virt. eigenvalues --    0.23399   0.23827   0.23940   0.24367   0.24860
 Alpha virt. eigenvalues --    0.25344   0.25732   0.25958   0.26503   0.27068
 Alpha virt. eigenvalues --    0.27401   0.27914   0.28451   0.28557   0.28904
 Alpha virt. eigenvalues --    0.29333   0.29570   0.30122   0.30517   0.30769
 Alpha virt. eigenvalues --    0.31092   0.31589   0.32453   0.32692   0.33333
 Alpha virt. eigenvalues --    0.33584   0.34008   0.34106   0.34432   0.34659
 Alpha virt. eigenvalues --    0.35177   0.35381   0.35779   0.36619   0.36842
 Alpha virt. eigenvalues --    0.37511   0.37986   0.39084   0.39164   0.39412
 Alpha virt. eigenvalues --    0.39828   0.40397   0.41010   0.41282   0.41684
 Alpha virt. eigenvalues --    0.41990   0.42483   0.43044   0.43609   0.43846
 Alpha virt. eigenvalues --    0.44215   0.45172   0.45240   0.45838   0.46083
 Alpha virt. eigenvalues --    0.46421   0.46855   0.47317   0.47674   0.48032
 Alpha virt. eigenvalues --    0.48576   0.48899   0.49436   0.49806   0.50195
 Alpha virt. eigenvalues --    0.50680   0.50920   0.51522   0.52051   0.52411
 Alpha virt. eigenvalues --    0.52750   0.52927   0.53554   0.53754   0.54237
 Alpha virt. eigenvalues --    0.54581   0.54691   0.55233   0.55789   0.56426
 Alpha virt. eigenvalues --    0.56524   0.57143   0.57562   0.57796   0.58281
 Alpha virt. eigenvalues --    0.59058   0.59346   0.59670   0.60166   0.60266
 Alpha virt. eigenvalues --    0.60737   0.61118   0.61475   0.61763   0.62283
 Alpha virt. eigenvalues --    0.62957   0.63223   0.63945   0.64038   0.64691
 Alpha virt. eigenvalues --    0.65601   0.65961   0.66387   0.66705   0.67716
 Alpha virt. eigenvalues --    0.67827   0.68152   0.68488   0.68805   0.68947
 Alpha virt. eigenvalues --    0.69640   0.70107   0.70404   0.71317   0.71816
 Alpha virt. eigenvalues --    0.72120   0.72579   0.72778   0.73266   0.74172
 Alpha virt. eigenvalues --    0.75186   0.76023   0.76355   0.76666   0.77318
 Alpha virt. eigenvalues --    0.78153   0.78498   0.79279   0.79398   0.80119
 Alpha virt. eigenvalues --    0.80552   0.81172   0.81357   0.82297   0.82723
 Alpha virt. eigenvalues --    0.83878   0.84942   0.85574   0.85866   0.85936
 Alpha virt. eigenvalues --    0.86335   0.87228   0.87665   0.88542   0.89552
 Alpha virt. eigenvalues --    0.90706   0.91470   0.92378   0.92888   0.93369
 Alpha virt. eigenvalues --    0.93634   0.94700   0.95251   0.95370   0.96577
 Alpha virt. eigenvalues --    0.97504   0.98315   0.99128   1.00613   1.00932
 Alpha virt. eigenvalues --    1.01215   1.02269   1.02826   1.03366   1.04705
 Alpha virt. eigenvalues --    1.05568   1.06279   1.07198   1.07329   1.08777
 Alpha virt. eigenvalues --    1.09306   1.10496   1.11064   1.11327   1.11804
 Alpha virt. eigenvalues --    1.13409   1.14446   1.15332   1.16032   1.16491
 Alpha virt. eigenvalues --    1.17680   1.18170   1.19812   1.20757   1.20997
 Alpha virt. eigenvalues --    1.22492   1.23344   1.25450   1.27584   1.27829
 Alpha virt. eigenvalues --    1.28671   1.29652   1.30619   1.31933   1.32576
 Alpha virt. eigenvalues --    1.33191   1.33694   1.35532   1.35744   1.36920
 Alpha virt. eigenvalues --    1.38332   1.39362   1.39923   1.40630   1.41280
 Alpha virt. eigenvalues --    1.41740   1.43702   1.44736   1.45126   1.45820
 Alpha virt. eigenvalues --    1.46519   1.47800   1.48417   1.49599   1.50681
 Alpha virt. eigenvalues --    1.51328   1.52057   1.52502   1.53178   1.54145
 Alpha virt. eigenvalues --    1.56380   1.56741   1.57140   1.57922   1.58525
 Alpha virt. eigenvalues --    1.59381   1.60140   1.60414   1.62423   1.63300
 Alpha virt. eigenvalues --    1.63656   1.64777   1.65741   1.66777   1.67245
 Alpha virt. eigenvalues --    1.68543   1.69845   1.70412   1.70897   1.71672
 Alpha virt. eigenvalues --    1.72183   1.73029   1.74394   1.74591   1.75527
 Alpha virt. eigenvalues --    1.76981   1.78473   1.79153   1.79839   1.80413
 Alpha virt. eigenvalues --    1.81338   1.81880   1.82133   1.83676   1.83909
 Alpha virt. eigenvalues --    1.85331   1.85981   1.86269   1.86632   1.87336
 Alpha virt. eigenvalues --    1.88415   1.89507   1.90648   1.91649   1.91928
 Alpha virt. eigenvalues --    1.93228   1.94486   1.95631   1.96382   1.97337
 Alpha virt. eigenvalues --    1.97628   1.97843   1.98923   1.99603   2.00497
 Alpha virt. eigenvalues --    2.01828   2.03293   2.04126   2.04573   2.05901
 Alpha virt. eigenvalues --    2.07131   2.07862   2.08281   2.10136   2.10808
 Alpha virt. eigenvalues --    2.11447   2.12578   2.13546   2.14464   2.15780
 Alpha virt. eigenvalues --    2.16742   2.17685   2.18930   2.19757   2.20348
 Alpha virt. eigenvalues --    2.21529   2.22551   2.22740   2.23806   2.24687
 Alpha virt. eigenvalues --    2.26563   2.26873   2.26920   2.28493   2.30391
 Alpha virt. eigenvalues --    2.30927   2.31917   2.32765   2.34837   2.35764
 Alpha virt. eigenvalues --    2.37156   2.37645   2.38867   2.40731   2.41521
 Alpha virt. eigenvalues --    2.42156   2.44117   2.45360   2.46858   2.47975
 Alpha virt. eigenvalues --    2.49358   2.50381   2.50878   2.51945   2.53703
 Alpha virt. eigenvalues --    2.54200   2.54688   2.56539   2.57647   2.58735
 Alpha virt. eigenvalues --    2.59607   2.60003   2.60741   2.62743   2.64630
 Alpha virt. eigenvalues --    2.64893   2.69402   2.70016   2.71179   2.72034
 Alpha virt. eigenvalues --    2.72197   2.73455   2.74979   2.76976   2.78060
 Alpha virt. eigenvalues --    2.78954   2.79990   2.81371   2.83641   2.84254
 Alpha virt. eigenvalues --    2.86969   2.88096   2.88685   2.89620   2.90975
 Alpha virt. eigenvalues --    2.95962   2.99175   3.04205   3.05930   3.11335
 Alpha virt. eigenvalues --    3.12953   3.16194   3.24981   3.28390   3.34729
 Alpha virt. eigenvalues --    3.36775   3.37717   3.40319   3.41194   3.44333
 Alpha virt. eigenvalues --    3.46303   3.47583   3.48381   3.51534   3.55813
 Alpha virt. eigenvalues --    3.62916   3.75801   3.78676   3.82628   3.84564
 Alpha virt. eigenvalues --    3.94272   4.03264   4.05453   4.24731   4.82726
          Condensed to atoms (all electrons):
               1          2          3          4          5          6
     1  C   17.370407  -4.910055  -1.275077  -0.273654  -1.853187  -0.745606
     2  C   -4.910055  23.717656 -10.295599   0.261031  -0.416440   0.179601
     3  C   -1.275077 -10.295599  23.157474  -3.597121   1.358365  -0.643513
     4  C   -0.273654   0.261031  -3.597121  11.406954  -2.546282   0.359835
     5  C   -1.853187  -0.416440   1.358365  -2.546282   9.913440   0.300328
     6  N   -0.745606   0.179601  -0.643513   0.359835   0.300328   7.846385
     7  C   -1.078419  -7.807995  -0.961201   0.370863  -0.609078   0.458290
     8  C   -0.547926   0.609051  -0.091330  -0.068733  -0.090037  -0.064768
     9  C    0.178969   0.337420  -0.044529  -0.040617   0.030406   0.006054
    10  C   -0.119883  -0.224829   0.014339   0.026783  -0.041560   0.025977
    11  N   -0.297241   1.001373  -0.585960   0.012588   0.065037   0.015365
    12  O   -0.088220  -0.037806  -0.032622   0.006665  -0.011377   0.001680
    13  H    0.000510   0.132666   0.015255   0.005586  -0.003637  -0.002023
    14  H    0.030524  -0.005593  -0.007984  -0.005472   0.003308  -0.000128
    15  H   -0.034920  -0.129306   0.011861   0.002532  -0.002275   0.000421
    16  H   -0.040752   0.064922   0.009254  -0.053280   0.022670   0.025809
    17  H    0.203057   0.170724  -0.036367   0.003132   0.004727  -0.017655
    18  H    0.007550  -0.102388   0.032143  -0.001978   0.000798   0.002338
    19  H   -0.071461   1.150408   0.001746  -0.051126   0.032661  -0.007657
    20  H   -1.165589  -0.253967  -0.307361   0.186770  -0.212894  -0.126998
    21  H    0.329729  -0.262545   0.284750  -0.061343  -0.423151  -0.160740
    22  H   -0.019449   0.108505   0.479520  -1.161657   0.376666  -0.080242
    23  H    0.055171   1.373002  -2.563094   0.588993  -0.212281  -0.006094
    24  C   -0.073965   0.290120  -0.157472   0.108091  -0.053114   0.016617
    25  H   -0.326314  -0.019439  -0.133780   0.000176   0.013571   0.000670
    26  H    0.047502   0.029382  -0.003355   0.000664   0.005012  -0.000947
    27  H    0.004523  -0.015447   0.002789  -0.000504   0.000035   0.001393
    28  H   -0.124576   0.029463   0.009041  -0.054288   0.086130   0.123595
    29  O    0.044398   0.007869  -0.015833   0.008537  -0.046316  -0.088501
    30  H    0.030605  -0.011761  -0.000196   0.003496  -0.002659  -0.014856
    31  O   -0.142371   0.085723  -0.025842   0.001867   0.016198   0.036215
    32  H   -0.026819   0.026768  -0.014058   0.007733  -0.006469   0.010421
    33  H    0.021853  -0.011934   0.002998  -0.001538  -0.000175  -0.003989
    34  H    0.000288   0.058991  -0.042912   0.015425  -0.002769   0.000128
    35  H    0.108142   0.028789   0.039536   0.009159  -0.017714  -0.014027
    36  H   -0.011965  -0.086945   0.088235  -0.028442   0.006196   0.001009
               7          8          9         10         11         12
     1  C   -1.078419  -0.547926   0.178969  -0.119883  -0.297241  -0.088220
     2  C   -7.807995   0.609051   0.337420  -0.224829   1.001373  -0.037806
     3  C   -0.961201  -0.091330  -0.044529   0.014339  -0.585960  -0.032622
     4  C    0.370863  -0.068733  -0.040617   0.026783   0.012588   0.006665
     5  C   -0.609078  -0.090037   0.030406  -0.041560   0.065037  -0.011377
     6  N    0.458290  -0.064768   0.006054   0.025977   0.015365   0.001680
     7  C   23.734219  -2.648983   0.172906  -0.660018  -3.017034   0.129049
     8  C   -2.648983   8.696355  -0.953946   0.729548  -0.702399   0.033024
     9  C    0.172906  -0.953946   6.224419  -0.108747  -0.447288  -0.000673
    10  C   -0.660018   0.729548  -0.108747   5.618440   0.055892   0.008772
    11  N   -3.017034  -0.702399  -0.447288   0.055892  12.345399  -0.201945
    12  O    0.129049   0.033024  -0.000673   0.008772  -0.201945   7.974529
    13  H    0.088294   0.021836   0.038511  -0.353185  -0.022339  -0.006214
    14  H   -0.202008   0.246550  -0.234635   0.211366  -0.010964  -0.004714
    15  H    0.357045   0.169059  -0.343815   0.008595   0.038926   0.013734
    16  H   -0.444306  -0.015739   0.221313   0.049060  -0.034593   0.016394
    17  H    0.343963  -0.995159   0.192581  -0.173377   0.226592  -0.003636
    18  H    0.382652   0.064032   0.100701  -0.064222  -1.015326   0.033126
    19  H   -3.360260   0.828818  -0.114865   0.148431  -0.219542   0.006951
    20  H    0.060606   0.129128   0.045446  -0.022591  -0.101935   0.023954
    21  H   -0.011001  -0.001250   0.001053  -0.001034   0.002902  -0.000960
    22  H   -0.007139   0.011541  -0.000172  -0.000768  -0.004285   0.000279
    23  H   -0.013015  -0.097616   0.003635   0.002742   0.023007  -0.002189
    24  C   -0.403274  -0.188016  -0.013706  -0.092292   0.892781   0.000459
    25  H    0.158431  -0.058024  -0.058717  -0.341106   0.466078  -0.067998
    26  H   -0.103522   0.009703   0.016503   0.006095   0.065080   0.286978
    27  H    0.035896  -0.003877  -0.007622  -0.000849  -0.008986   0.341944
    28  H    0.010556  -0.004651  -0.001138   0.000458  -0.000098   0.006419
    29  O   -0.001556   0.001308  -0.000244   0.000320  -0.000117   0.001535
    30  H   -0.001056   0.000294   0.000025   0.000032   0.000056  -0.000497
    31  O   -0.008265  -0.000689  -0.000836  -0.003013   0.008155  -0.025415
    32  H   -0.005962   0.002574  -0.000831  -0.001046   0.000681   0.004440
    33  H    0.002400  -0.000719   0.000046   0.000246   0.002564  -0.002447
    34  H    0.063256  -0.105536   0.071895  -0.069114  -0.254072   0.021730
    35  H    0.020534   0.076104  -0.042606  -0.080791   0.002867   0.015425
    36  H   -0.079226   0.081302   0.005898   0.220843  -0.326267  -0.011754
              13         14         15         16         17         18
     1  C    0.000510   0.030524  -0.034920  -0.040752   0.203057   0.007550
     2  C    0.132666  -0.005593  -0.129306   0.064922   0.170724  -0.102388
     3  C    0.015255  -0.007984   0.011861   0.009254  -0.036367   0.032143
     4  C    0.005586  -0.005472   0.002532  -0.053280   0.003132  -0.001978
     5  C   -0.003637   0.003308  -0.002275   0.022670   0.004727   0.000798
     6  N   -0.002023  -0.000128   0.000421   0.025809  -0.017655   0.002338
     7  C    0.088294  -0.202008   0.357045  -0.444306   0.343963   0.382652
     8  C    0.021836   0.246550   0.169059  -0.015739  -0.995159   0.064032
     9  C    0.038511  -0.234635  -0.343815   0.221313   0.192581   0.100701
    10  C   -0.353185   0.211366   0.008595   0.049060  -0.173377  -0.064222
    11  N   -0.022339  -0.010964   0.038926  -0.034593   0.226592  -1.015326
    12  O   -0.006214  -0.004714   0.013734   0.016394  -0.003636   0.033126
    13  H    2.416199  -0.294440   0.192255  -0.064742   0.063793  -0.599324
    14  H   -0.294440   1.973386  -0.557872   0.191893  -0.283260   0.132565
    15  H    0.192255  -0.557872   2.090607  -0.390091   0.148377  -0.311231
    16  H   -0.064742   0.191893  -0.390091   2.266735  -0.607031   0.063052
    17  H    0.063793  -0.283260   0.148377  -0.607031   2.463556  -0.041497
    18  H   -0.599324   0.132565  -0.311231   0.063052  -0.041497   2.769071
    19  H   -0.138420   0.056314  -0.047875   0.223453  -0.299373   0.106453
    20  H    0.008052  -0.009070   0.015934  -0.195318   0.045542  -0.017575
    21  H   -0.000059   0.000073   0.000036  -0.002304   0.001416   0.000060
    22  H   -0.000235  -0.000041  -0.000032   0.002487  -0.002304  -0.000053
    23  H    0.001292   0.001692  -0.000525  -0.009814   0.008204  -0.001546
    24  C   -0.018826  -0.007205   0.003943  -0.048817   0.055259  -0.125761
    25  H   -0.028801  -0.003263   0.016354   0.033335   0.003006   0.031047
    26  H   -0.001603  -0.000300  -0.007373   0.009677  -0.001165   0.007927
    27  H   -0.000181   0.000163   0.002674   0.002679   0.000151  -0.002788
    28  H   -0.000133   0.000101  -0.000407   0.002887  -0.000112   0.000548
    29  O    0.000035  -0.000007  -0.000032  -0.000412   0.000088   0.000049
    30  H    0.000012  -0.000007   0.000038  -0.000406   0.000006  -0.000039
    31  O   -0.000111  -0.000161   0.000398  -0.001556   0.000298  -0.001483
    32  H   -0.000073   0.000032  -0.000036   0.000643  -0.000128   0.000045
    33  H   -0.000003  -0.000004   0.000048  -0.000157   0.000034  -0.000166
    34  H   -0.000494  -0.001918   0.009086  -0.015088   0.001844  -0.028461
    35  H    0.009699  -0.001300  -0.002983   0.002006   0.001927   0.010253
    36  H    0.022363   0.005496  -0.006012   0.011123   0.003045   0.041706
              19         20         21         22         23         24
     1  C   -0.071461  -1.165589   0.329729  -0.019449   0.055171  -0.073965
     2  C    1.150408  -0.253967  -0.262545   0.108505   1.373002   0.290120
     3  C    0.001746  -0.307361   0.284750   0.479520  -2.563094  -0.157472
     4  C   -0.051126   0.186770  -0.061343  -1.161657   0.588993   0.108091
     5  C    0.032661  -0.212894  -0.423151   0.376666  -0.212281  -0.053114
     6  N   -0.007657  -0.126998  -0.160740  -0.080242  -0.006094   0.016617
     7  C   -3.360260   0.060606  -0.011001  -0.007139  -0.013015  -0.403274
     8  C    0.828818   0.129128  -0.001250   0.011541  -0.097616  -0.188016
     9  C   -0.114865   0.045446   0.001053  -0.000172   0.003635  -0.013706
    10  C    0.148431  -0.022591  -0.001034  -0.000768   0.002742  -0.092292
    11  N   -0.219542  -0.101935   0.002902  -0.004285   0.023007   0.892781
    12  O    0.006951   0.023954  -0.000960   0.000279  -0.002189   0.000459
    13  H   -0.138420   0.008052  -0.000059  -0.000235   0.001292  -0.018826
    14  H    0.056314  -0.009070   0.000073  -0.000041   0.001692  -0.007205
    15  H   -0.047875   0.015934   0.000036  -0.000032  -0.000525   0.003943
    16  H    0.223453  -0.195318  -0.002304   0.002487  -0.009814  -0.048817
    17  H   -0.299373   0.045542   0.001416  -0.002304   0.008204   0.055259
    18  H    0.106453  -0.017575   0.000060  -0.000053  -0.001546  -0.125761
    19  H    3.921906  -0.027004   0.000866   0.001551  -0.151003  -0.129900
    20  H   -0.027004   4.205447   0.024847  -0.012563  -0.023822  -0.011737
    21  H    0.000866   0.024847   1.997894  -0.114094  -0.004253   0.001486
    22  H    0.001551  -0.012563  -0.114094   2.173332  -0.146728  -0.011530
    23  H   -0.151003  -0.023822  -0.004253  -0.146728   3.020907   0.055236
    24  C   -0.129900  -0.011737   0.001486  -0.011530   0.055236   4.517806
    25  H   -0.047056   0.059195  -0.003650   0.003381   0.003472  -0.095582
    26  H    0.004372  -0.039867   0.001173  -0.000148  -0.000413  -0.001983
    27  H   -0.000392  -0.010545  -0.000231   0.000046   0.000135   0.002496
    28  H   -0.001331  -0.087113  -0.026784   0.007625   0.000560  -0.000339
    29  O   -0.000057   0.021055   0.009548   0.000064  -0.000373   0.000122
    30  H    0.000100   0.003260   0.004192  -0.000629  -0.000095   0.000020
    31  O   -0.000295   0.009458  -0.002750   0.000437  -0.000322   0.001440
    32  H    0.000066  -0.009473   0.000726  -0.000565   0.000204   0.001859
    33  H   -0.000131   0.006875  -0.000332   0.000061   0.000021  -0.001352
    34  H   -0.008386   0.008899   0.000471  -0.001423   0.005693   0.190074
    35  H    0.021574   0.010527  -0.002199  -0.000365  -0.017297   0.048276
    36  H    0.054419  -0.009693   0.000056   0.000997   0.002857   0.177134
              25         26         27         28         29         30
     1  C   -0.326314   0.047502   0.004523  -0.124576   0.044398   0.030605
     2  C   -0.019439   0.029382  -0.015447   0.029463   0.007869  -0.011761
     3  C   -0.133780  -0.003355   0.002789   0.009041  -0.015833  -0.000196
     4  C    0.000176   0.000664  -0.000504  -0.054288   0.008537   0.003496
     5  C    0.013571   0.005012   0.000035   0.086130  -0.046316  -0.002659
     6  N    0.000670  -0.000947   0.001393   0.123595  -0.088501  -0.014856
     7  C    0.158431  -0.103522   0.035896   0.010556  -0.001556  -0.001056
     8  C   -0.058024   0.009703  -0.003877  -0.004651   0.001308   0.000294
     9  C   -0.058717   0.016503  -0.007622  -0.001138  -0.000244   0.000025
    10  C   -0.341106   0.006095  -0.000849   0.000458   0.000320   0.000032
    11  N    0.466078   0.065080  -0.008986  -0.000098  -0.000117   0.000056
    12  O   -0.067998   0.286978   0.341944   0.006419   0.001535  -0.000497
    13  H   -0.028801  -0.001603  -0.000181  -0.000133   0.000035   0.000012
    14  H   -0.003263  -0.000300   0.000163   0.000101  -0.000007  -0.000007
    15  H    0.016354  -0.007373   0.002674  -0.000407  -0.000032   0.000038
    16  H    0.033335   0.009677   0.002679   0.002887  -0.000412  -0.000406
    17  H    0.003006  -0.001165   0.000151  -0.000112   0.000088   0.000006
    18  H    0.031047   0.007927  -0.002788   0.000548   0.000049  -0.000039
    19  H   -0.047056   0.004372  -0.000392  -0.001331  -0.000057   0.000100
    20  H    0.059195  -0.039867  -0.010545  -0.087113   0.021055   0.003260
    21  H   -0.003650   0.001173  -0.000231  -0.026784   0.009548   0.004192
    22  H    0.003381  -0.000148   0.000046   0.007625   0.000064  -0.000629
    23  H    0.003472  -0.000413   0.000135   0.000560  -0.000373  -0.000095
    24  C   -0.095582  -0.001983   0.002496  -0.000339   0.000122   0.000020
    25  H    1.272420  -0.034286   0.007915   0.001927  -0.002009  -0.000422
    26  H   -0.034286   0.588891  -0.105124   0.000071   0.000358   0.000296
    27  H    0.007915  -0.105124   0.530800   0.000973   0.000131  -0.000213
    28  H    0.001927   0.000071   0.000973   0.654420   0.297552  -0.124008
    29  O   -0.002009   0.000358   0.000131   0.297552   7.717955   0.360313
    30  H   -0.000422   0.000296  -0.000213  -0.124008   0.360313   0.595461
    31  O    0.017643   0.037901  -0.001107   0.006012  -0.028580   0.001032
    32  H    0.003238  -0.006210   0.000973  -0.007489   0.038464   0.006301
    33  H   -0.000476  -0.004383   0.000716  -0.001320   0.000849  -0.000654
    34  H    0.087295  -0.012902  -0.000190  -0.000628   0.000036   0.000028
    35  H   -0.039885   0.010300  -0.001609  -0.000447  -0.000043   0.000113
    36  H   -0.116640  -0.000188   0.001013   0.000569   0.000045  -0.000008
              31         32         33         34         35         36
     1  C   -0.142371  -0.026819   0.021853   0.000288   0.108142  -0.011965
     2  C    0.085723   0.026768  -0.011934   0.058991   0.028789  -0.086945
     3  C   -0.025842  -0.014058   0.002998  -0.042912   0.039536   0.088235
     4  C    0.001867   0.007733  -0.001538   0.015425   0.009159  -0.028442
     5  C    0.016198  -0.006469  -0.000175  -0.002769  -0.017714   0.006196
     6  N    0.036215   0.010421  -0.003989   0.000128  -0.014027   0.001009
     7  C   -0.008265  -0.005962   0.002400   0.063256   0.020534  -0.079226
     8  C   -0.000689   0.002574  -0.000719  -0.105536   0.076104   0.081302
     9  C   -0.000836  -0.000831   0.000046   0.071895  -0.042606   0.005898
    10  C   -0.003013  -0.001046   0.000246  -0.069114  -0.080791   0.220843
    11  N    0.008155   0.000681   0.002564  -0.254072   0.002867  -0.326267
    12  O   -0.025415   0.004440  -0.002447   0.021730   0.015425  -0.011754
    13  H   -0.000111  -0.000073  -0.000003  -0.000494   0.009699   0.022363
    14  H   -0.000161   0.000032  -0.000004  -0.001918  -0.001300   0.005496
    15  H    0.000398  -0.000036   0.000048   0.009086  -0.002983  -0.006012
    16  H   -0.001556   0.000643  -0.000157  -0.015088   0.002006   0.011123
    17  H    0.000298  -0.000128   0.000034   0.001844   0.001927   0.003045
    18  H   -0.001483   0.000045  -0.000166  -0.028461   0.010253   0.041706
    19  H   -0.000295   0.000066  -0.000131  -0.008386   0.021574   0.054419
    20  H    0.009458  -0.009473   0.006875   0.008899   0.010527  -0.009693
    21  H   -0.002750   0.000726  -0.000332   0.000471  -0.002199   0.000056
    22  H    0.000437  -0.000565   0.000061  -0.001423  -0.000365   0.000997
    23  H   -0.000322   0.000204   0.000021   0.005693  -0.017297   0.002857
    24  C    0.001440   0.001859  -0.001352   0.190074   0.048276   0.177134
    25  H    0.017643   0.003238  -0.000476   0.087295  -0.039885  -0.116640
    26  H    0.037901  -0.006210  -0.004383  -0.012902   0.010300  -0.000188
    27  H   -0.001107   0.000973   0.000716  -0.000190  -0.001609   0.001013
    28  H    0.006012  -0.007489  -0.001320  -0.000628  -0.000447   0.000569
    29  O   -0.028580   0.038464   0.000849   0.000036  -0.000043   0.000045
    30  H    0.001032   0.006301  -0.000654   0.000028   0.000113  -0.000008
    31  O    7.757971   0.320028   0.344290   0.007299  -0.014819  -0.000598
    32  H    0.320028   0.539946  -0.100478   0.001036  -0.000423  -0.000217
    33  H    0.344290  -0.100478   0.583476   0.000055   0.000341   0.000025
    34  H    0.007299   0.001036   0.000055   2.060738  -0.583901  -0.350647
    35  H   -0.014819  -0.000423   0.000341  -0.583901   1.936426  -0.441914
    36  H   -0.000598  -0.000217   0.000025  -0.350647  -0.441914   1.888123
 Mulliken charges:
               1
     1  C    0.794225
     2  C    0.928585
     3  C    1.327902
     4  C    0.559158
     5  C    0.315868
     6  N   -0.434385
     7  C    1.034359
     8  C    0.929172
     9  C    0.767207
    10  C    1.230485
    11  N   -0.974951
    12  O   -0.428620
    13  H   -0.481516
    14  H   -0.223117
    15  H   -0.247139
    16  H   -0.294987
    17  H   -0.480260
    18  H   -0.472276
    19  H   -0.883954
    20  H   -1.219880
    21  H   -0.582600
    22  H   -0.602072
    23  H   -0.896342
    24  C    1.071651
    25  H    0.198293
    26  H    0.195881
    27  H    0.222220
    28  H    0.195954
    29  O   -0.326553
    30  H    0.151826
    31  O   -0.394155
    32  H    0.214102
    33  H    0.163359
    34  H   -0.125827
    35  H   -0.089675
    36  H   -0.141938
 Sum of Mulliken charges =   1.00000
 Mulliken charges with hydrogens summed into heavy atoms:
               1
     1  C   -0.425655
     2  C    0.928585
     3  C    0.431560
     4  C   -0.042914
     5  C   -0.266732
     6  N   -0.434385
     7  C    0.150405
     8  C    0.153925
     9  C    0.296950
    10  C    0.276694
    11  N   -0.776658
    12  O   -0.010519
    24  C    0.714211
    29  O    0.021227
    31  O   -0.016695
 Electronic spatial extent (au):  <R**2>=           3842.8016
 Charge=              1.0000 electrons
 Dipole moment (field-independent basis, Debye):
    X=             -4.5606    Y=             -0.4426    Z=              0.8094  Tot=              4.6529
 Quadrupole moment (field-independent basis, Debye-Ang):
   XX=            -52.7501   YY=            -66.9712   ZZ=            -78.2378
   XY=             -1.4610   XZ=             -2.5814   YZ=             -4.6318
 Traceless Quadrupole moment (field-independent basis, Debye-Ang):
   XX=             13.2363   YY=             -0.9848   ZZ=            -12.2514
   XY=             -1.4610   XZ=             -2.5814   YZ=             -4.6318
 Octapole moment (field-independent basis, Debye-Ang**2):
  XXX=             23.2252  YYY=             53.7957  ZZZ=             11.6396  XYY=             25.0502
  XXY=              3.7211  XXZ=            -12.9145  XZZ=             -8.2182  YZZ=             22.6911
  YYZ=             14.8385  XYZ=             -0.5136
 Hexadecapole moment (field-independent basis, Debye-Ang**3):
 XXXX=          -2135.3780 YYYY=          -1123.5526 ZZZZ=           -593.7346 XXXY=             40.9802
 XXXZ=           -102.6245 YYYX=             50.4669 YYYZ=            -27.2126 ZZZX=            -18.2210
 ZZZY=             13.3531 XXYY=           -585.3314 XXZZ=           -497.8504 YYZZ=           -274.8870
 XXYZ=            -13.4393 YYXZ=             65.4913 ZZXY=             32.4452
 N-N= 1.105329213332D+03 E-N=-3.893517641525D+03  KE= 7.239859527936D+02
 Calling FoFJK, ICntrl=      2127 FMM=F ISym2X=0 I1Cent= 0 IOpClX= 0 NMat=1 NMatS=1 NMatT=0.
 ***** Axes restored to original set *****
 -------------------------------------------------------------------
 Center     Atomic                   Forces (Hartrees/Bohr)
 Number     Number              X              Y              Z
 -------------------------------------------------------------------
      1        6           0.002384011   -0.002393609    0.000035409
      2        6          -0.000954519    0.000913764    0.000047638
      3        6           0.000424659   -0.000045213    0.000196286
      4        6          -0.000443452    0.000244416   -0.000141057
      5        6          -0.000304354    0.001091633    0.000362369
      6        7          -0.009233388   -0.004492788   -0.009261506
      7        6           0.000933048    0.000252107   -0.000286077
      8        6          -0.000637634   -0.000404737   -0.000061480
      9        6           0.000077433   -0.000177843   -0.000041405
     10        6           0.000301216    0.000764226   -0.000011749
     11        7           0.001777567    0.002355040    0.003128279
     12        8          -0.005213120    0.025482741   -0.014447872
     13        1           0.000254082    0.000089264    0.000180593
     14        1           0.000071677    0.000170878   -0.000045858
     15        1          -0.000335078    0.000025338   -0.000263255
     16        1          -0.000313570   -0.000630769   -0.000294554
     17        1           0.000091972    0.000115696   -0.000035317
     18        1          -0.000166122   -0.000194927    0.000209663
     19        1          -0.000123018    0.000206367    0.000120868
     20        1          -0.000229674    0.001112750    0.000622156
     21        1           0.000001470    0.000543203    0.000470673
     22        1          -0.000036935    0.000004586   -0.000033160
     23        1          -0.000040620    0.000071391    0.000008380
     24        6          -0.000124629   -0.001375254    0.001271887
     25        1          -0.006247996   -0.004900071   -0.007459795
     26        1           0.017467729    0.002199984    0.015902122
     27        1          -0.003921687   -0.026027015    0.007364466
     28        1           0.009298945   -0.007043675    0.006426933
     29        8          -0.003526206    0.009391422    0.000752547
     30        1          -0.000790816    0.002753980    0.000618400
     31        8          -0.000742827    0.005699409   -0.016743424
     32        1          -0.002233855   -0.007533112    0.012696460
     33        1           0.002181081    0.001192712   -0.001049041
     34        1           0.000227833    0.000155941   -0.000121368
     35        1           0.000149205    0.000307091    0.000124661
     36        1          -0.000022427    0.000075073   -0.000242874
 -------------------------------------------------------------------
 Cartesian Forces:  Max     0.026027015 RMS     0.005593346

 GradGradGradGradGradGradGradGradGradGradGradGradGradGradGradGradGradGrad
 Berny optimization.
 FormGI is forming the generalized inverse of G from B-inverse, IUseBI=4.
 Internal  Forces:  Max     0.027330757 RMS     0.002877038
 Search for a local minimum.
 Step number   1 out of a maximum of  216
 All quantities printed in internal units (Hartrees-Bohrs-Radians)
 Mixed Optimization -- RFO/linear search
 Second derivative matrix not updated -- first step.
 ITU=  0
     Eigenvalues ---    0.00230   0.00230   0.00314   0.00340   0.00488
     Eigenvalues ---    0.00516   0.00608   0.00676   0.00785   0.01072
     Eigenvalues ---    0.01123   0.01599   0.01803   0.01948   0.02125
     Eigenvalues ---    0.02173   0.02195   0.02226   0.02309   0.02361
     Eigenvalues ---    0.02412   0.02608   0.03184   0.03564   0.03849
     Eigenvalues ---    0.04050   0.04192   0.04269   0.04492   0.04812
     Eigenvalues ---    0.04924   0.05099   0.05472   0.05508   0.05667
     Eigenvalues ---    0.05768   0.06056   0.06110   0.06207   0.06871
     Eigenvalues ---    0.07128   0.07129   0.07160   0.07961   0.08790
     Eigenvalues ---    0.09053   0.10594   0.11068   0.11186   0.12708
     Eigenvalues ---    0.13163   0.14473   0.15426   0.15771   0.15999
     Eigenvalues ---    0.16000   0.16000   0.16000   0.16000   0.16000
     Eigenvalues ---    0.16000   0.18714   0.19555   0.21063   0.21136
     Eigenvalues ---    0.21668   0.22291   0.23491   0.26191   0.27115
     Eigenvalues ---    0.28737   0.29461   0.31317   0.31501   0.33766
     Eigenvalues ---    0.34064   0.34189   0.34193   0.34340   0.34344
     Eigenvalues ---    0.34345   0.34373   0.34375   0.34395   0.34686
     Eigenvalues ---    0.34787   0.34844   0.34939   0.35022   0.38655
     Eigenvalues ---    0.41330   0.43691   0.46176   0.46777   0.49543
     Eigenvalues ---    0.49781   0.50692   0.54442   0.55536   0.55549
     Eigenvalues ---    0.55662   0.57041
 RFO step:  Lambda=-9.75848698D-03 EMin= 2.30000000D-03
 Linear search not attempted -- first point.
 Maximum step size (   0.300) exceeded in Quadratic search.
    -- Step size scaled by   0.887
 Iteration  1 RMS(Cart)=  0.08525165 RMS(Int)=  0.00345570
 Iteration  2 RMS(Cart)=  0.00628342 RMS(Int)=  0.00075022
 Iteration  3 RMS(Cart)=  0.00003017 RMS(Int)=  0.00075010
 Iteration  4 RMS(Cart)=  0.00000010 RMS(Int)=  0.00075010
 Variable       Old X    -DE/DX   Delta X   Delta X   Delta X     New X
                                 (Linear)    (Quad)   (Total)
    R1        2.63672   0.00066   0.00000   0.00075   0.00034   2.63706
    R2        2.52045  -0.00115   0.00000  -0.00191  -0.00246   2.51799
    R3        2.05929   0.00107   0.00000   0.00266   0.00266   2.06195
    R4        2.63774  -0.00006   0.00000  -0.00011  -0.00017   2.63758
    R5        2.84676  -0.00005   0.00000  -0.00120  -0.00168   2.84508
    R6        2.62849  -0.00060   0.00000  -0.00153  -0.00153   2.62696
    R7        2.06187  -0.00003   0.00000  -0.00008  -0.00008   2.06179
    R8        2.63252  -0.00029   0.00000  -0.00097  -0.00091   2.63161
    R9        2.05639  -0.00002   0.00000  -0.00005  -0.00005   2.05634
[...]
 00046188,0.00188365,0.00089275,0.01490355,0.00009871,-0.00583520,0.001
 14510,-0.00222518,-0.00042469,-0.07887068,0.16107935,0.63184271,0.0011
 7955,-0.00130537,0.00018212,-0.00049055,0.00015590,0.00012393,0.000057
 34,-0.00025912,-0.00003944,-0.00039957,-0.00031469,-0.00005276,-0.0004
 3258,0.00086218,0.00002465,-0.00182286,-0.00221337,-0.00130442,0.00053
 404,-0.00038418,-0.00054137,-0.00010374,0.00001952,0.00015949,0.000018
 28,-0.00000442,-0.00007433,-0.00017434,0.00003467,-0.00005368,0.000123
 11,0.00068349,0.00036020,0.00310464,0.00093740,0.00271859,0.00002251,0
 .00002575,0.00003093,-0.00001681,0.00003099,0.00003908,-0.00006613,0.0
 0002669,-0.00003958,0.00005662,-0.00004163,-0.00008064,0.00003461,0.00
 002229,0.00005112,-0.00012992,-0.00000768,0.00001594,-0.00009830,0.000
 03632,0.00005676,0.00020982,0.00015703,-0.00077688,0.00007456,0.000199
 08,0.00003181,-0.00006488,-0.00007822,-0.00003275,-0.00003284,-0.00001
 216,-0.00004471,-0.00002711,0.00012408,-0.00002017,-0.00063709,-0.0016
 5597,-0.00073189,-0.00766579,-0.00003841,-0.00294254,-0.00022926,0.000
 33373,-0.00036187,0.00626512,0.00704499,0.00203760,-0.00246660,-0.0000
 1362,-0.00603518,0.00120591,-0.00464957,-0.00266776,-0.35731052,-0.007
 69632,0.16297189,0.34823712,-0.00048103,-0.00005268,-0.00006944,-0.000
 08331,-0.00001166,-0.00006603,-0.00005376,0.00009694,-0.00002288,0.000
 15378,0.00011929,-0.00004322,0.00023727,-0.00040555,-0.00003506,-0.000
 13687,0.00000947,0.00059887,-0.00028844,0.00007698,0.00013027,0.000071
 78,0.00000794,-0.00007203,-0.00000415,-0.00000319,0.00003203,-0.000033
 46,0.00001327,-0.00001963,0.00006069,-0.00021190,-0.00006569,-0.000239
 67,-0.00011476,0.00056559,-0.00000254,-0.00001006,-0.00000386,0.000011
 29,-0.00000895,-0.00000334,0.00003084,-0.00001677,0.00000423,-0.000017
 28,0.00002946,-0.00000208,-0.00000701,0.00000124,-0.00001450,0.0000412
 7,0.00000297,-0.00000165,0.00003522,-0.00000838,-0.00001043,-0.0001699
 4,0.00024880,-0.00014706,0.00000152,-0.00000092,0.00000912,0.00001858,
 0.00001581,-0.00000390,0.00001044,0.00002260,0.00000947,-0.00006989,0.
 00002096,-0.00001246,0.00007654,0.00047551,0.00021624,0.00133801,-0.00
 044069,-0.00089664,0.00024656,0.00006527,-0.00019615,0.00427766,0.0002
 5966,-0.00228144,-0.00086108,-0.01410118,-0.00224247,-0.00326218,0.002
 38908,0.00259914,-0.02333882,-0.01726990,-0.00069475,0.00988183,0.0292
 5481,-0.00040698,-0.00016164,-0.00001582,-0.00002317,0.00026597,-0.000
 05821,0.00007418,0.00024611,0.00000481,0.00023568,0.00036663,0.0000117
 1,0.00056693,-0.00064322,0.00004182,0.00073878,0.00157012,0.00092674,-
 0.00060028,0.00028746,0.00047173,0.00007320,-0.00004811,-0.00016106,-0
 .00001723,0.00000230,0.00007584,0.00010808,-0.00001128,0.00001327,-0.0
 0005949,-0.00057849,-0.00028852,-0.00424902,-0.00010210,-0.00660343,-0
 .00001146,-0.00001637,-0.00001984,0.00002871,-0.00002242,-0.00003343,0
 .00005393,-0.00002747,0.00002334,-0.00005181,0.00005434,0.00002909,-0.
 00001541,-0.00000150,-0.00004518,0.00010705,0.00000084,-0.00001223,0.0
 0010393,-0.00001741,-0.00005053,-0.00080038,-0.00011845,-0.00015425,-0
 .00008780,-0.00008718,0.00002253,0.00005670,0.00007117,0.00003493,0.00
 001468,0.00006436,0.00004132,0.00001188,-0.00012898,0.00005735,0.00036
 244,0.00130353,0.00058003,0.00468103,-0.00156058,0.01110995,-0.0001782
 2,-0.00024139,0.00005175,0.00068207,-0.00530067,-0.00354339,-0.0075741
 4,-0.00133831,-0.00002204,-0.00112491,0.00335981,-0.00001196,0.1146868
 8,-0.00847457,-0.12056175,-0.14376696,0.00992840,0.13523220,-0.0000355
 4,0.00011902,-0.00003535,0.00001417,-0.00004156,0.00000292,-0.00001910
 ,-0.00000317,0.00000554,0.00000486,-0.00000632,-0.00000236,0.00000939,
 -0.00000228,0.00002203,-0.00004193,-0.00003887,-0.00003161,0.00006801,
 -0.00004097,-0.00002375,-0.00000501,0.00001623,0.00002559,-0.00000354,
 0.00001332,-0.00000794,0.00003405,-0.00003086,0.00000803,-0.00010484,-
 0.00012173,-0.00000280,-0.00468572,0.00145853,-0.00195101,-0.00001256,
 -0.00000630,-0.00000966,-0.00000585,-0.00000734,0.00000203,0.00000790,
 -0.00000443,0.00001190,-0.00000683,-0.00000602,0.00001323,-0.00000360,
 -0.00000851,0.00000745,0.00000977,0.00002598,-0.00001187,-0.00000518,-
 0.00001215,-0.00000976,-0.00000701,-0.00003029,0.00009579,-0.00000238,
 0.00000128,0.00001419,0.00000116,0.00000099,-0.00000358,-0.00000069,-0
 .00000962,-0.00000406,0.00006994,0.00004823,-0.00015443,0.00017207,0.0
 0032771,0.00003619,0.00706350,-0.00380137,0.00044422,-0.00053521,-0.00
 012616,-0.00071873,0.00034616,0.00005135,-0.00015436,-0.00344550,-0.00
 081993,0.00057748,-0.00044728,0.00032316,0.00024551,-0.05883923,-0.031
 22947,-0.08801717,0.01113588,0.01256978,0.03630507,0.04934182,-0.00000
 117,0.00013439,-0.00008312,0.00000119,-0.00001846,0.00001096,-0.000010
 92,-0.00001499,0.00001054,0.00001724,-0.00004113,0.00001588,-0.0000279
 1,-0.00001047,-0.00000774,0.00001144,-0.00001717,0.00002231,0.00004059
 ,-0.00002718,-0.00005486,0.00000076,0.00001017,0.00001175,0.00000718,0
 .00000840,-0.00000267,-0.00007597,0.00001181,0.00000096,0.00005067,0.0
 0000758,0.00007464,0.00274577,0.00002638,0.00126650,-0.00000509,-0.000
 00233,-0.00000287,0.00000024,0.00000009,0.00000852,-0.00000157,-0.0000
 0526,0.00000314,-0.00000267,0.00000080,0.00000084,0.00000016,-0.000002
 20,0.00000542,-0.00000488,0.00000932,-0.00000118,-0.00000818,-0.000002
 27,-0.00000097,0.00001212,-0.00009312,0.00003647,0.00001589,-0.0000063
 7,-0.00002282,0.00000141,-0.00000170,-0.00001590,0.00000068,-0.0000056
 9,-0.00000805,-0.00002030,0.00008132,-0.00008178,0.00008561,0.00001511
 ,-0.00000603,-0.00362864,-0.00010491,-0.00013674,0.00012578,0.00016623
 ,0.00028288,-0.00007626,0.00000846,-0.00000584,-0.00066063,0.00000134,
 0.00017815,0.00002785,0.00016427,0.00023308,-0.01839302,-0.05366933,-0
 .16244338,-0.00161749,-0.00046288,0.00115241,0.02144882,0.05388239,-0.
 00011033,-0.00004433,-0.00003099,0.00002192,0.00007198,-0.00001738,0.0
 0002016,-0.00001724,0.00000555,-0.00000638,0.00003621,-0.00001698,0.00
 009546,-0.00008459,0.00000153,0.00005294,0.00018770,0.00014002,-0.0000
 3355,0.00000802,-0.00001625,-0.00000551,-0.00001795,-0.00001105,0.0000
 0089,-0.00001084,0.00000513,-0.00005080,0.00001980,-0.00002427,0.00008
 805,0.00010815,-0.00000520,0.00084651,0.00053930,0.00102618,0.00000731
 ,0.00000920,0.00001135,0.00000600,0.00000806,0.00000314,-0.00001027,0.
 00000070,-0.00001191,0.00001228,0.00000544,-0.00001700,0.00000438,0.00
 000909,-0.00000088,-0.00001630,-0.00001448,0.00000750,0.00000699,0.000
 01392,0.00000868,-0.00000969,-0.00001166,0.00003195,-0.00001094,-0.000
 00757,0.00000271,0.00000529,0.00000963,0.00000778,0.00000773,0.0000053
 1,0.00000665,-0.00002013,-0.00000292,0.00006439,-0.00017832,-0.0003061
 1,-0.00011420,-0.00124268,-0.00070316,-0.00269768,-0.00031230,-0.00008
 227,-0.00017245,-0.00024209,-0.00033559,-0.00015450,0.00002250,0.00075
 421,0.00065476,0.00021521,-0.00015053,0.00005894,-0.04334164,-0.152377
 48,-0.48534731,-0.00916563,-0.00722915,-0.01725513,0.05334179,0.159656
 21,0.50380089,0.00021021,0.00020699,0.00009570,0.00014468,-0.00008372,
 0.00015678,0.00001561,-0.00024501,-0.00002360,0.00002749,-0.00003477,0
 .00001506,0.00000773,-0.00000315,-0.00000077,-0.00007039,-0.00004546,-
 0.00006357,-0.00016791,0.00008985,-0.00061049,0.00027457,0.00025515,-0
 .00013589,-0.00007381,-0.00012022,0.00003964,0.00075558,-0.00031366,-0
 .00082833,-0.00064002,-0.00090597,-0.00220064,0.00004181,0.00015985,-0
 .00048177,0.00002263,-0.00021111,0.00001750,0.00000901,-0.00001553,-0.
 00000098,0.00000277,-0.00000799,0.00004203,-0.00003274,0.00005054,-0.0
 0005749,0.00004545,-0.00002110,-0.00003640,0.00025713,0.00019262,0.000
 00333,-0.00000450,0.00018719,0.00019457,-0.00002045,0.00002313,0.00002
 436,0.00000049,0.00000187,-0.00000090,-0.00000634,-0.00000076,-0.00000
 066,-0.00001426,0.00001003,-0.00000619,-0.11105066,0.06601046,0.098540
 36,-0.00015418,0.00023446,0.00093300,-0.00021375,-0.00019063,0.0002068
 3,0.00008620,-0.00004328,0.00000273,0.00005478,0.00013097,0.00008175,0
 .00008590,-0.00009437,-0.00013178,-0.00000114,-0.00000366,-0.00000253,
 0.00034605,0.00010517,-0.00020850,-0.00021221,0.00007191,0.00018584,-0
 .00010013,-0.00009016,0.00000617,0.11269127,-0.00010877,-0.00000843,-0
 .00009447,0.00032231,-0.00000478,-0.00000363,-0.00008212,-0.00004978,-
 0.00011583,-0.00006662,0.00006270,-0.00001609,-0.00003297,0.00003448,0
 .00001100,0.00003916,-0.00001969,0.00000614,0.00101462,-0.00341003,0.0
 0157237,-0.00023000,0.00078837,0.00140857,-0.00027641,0.00005255,-0.00
 016106,-0.00085500,0.00116570,0.00015291,-0.01253884,0.01046383,0.0228
 2047,0.00026765,0.00005262,-0.00026480,0.00017476,-0.00027350,-0.00018
 559,0.00001968,-0.00000077,-0.00003388,0.00003513,-0.00002446,0.000013
 90,-0.00005246,0.00003426,-0.00005275,0.00005118,-0.00036393,0.0003142
 9,0.00008095,-0.00006584,-0.00012654,0.00016491,0.00025997,0.00032876,
 0.00000292,0.00001975,0.00001892,0.00000411,0.00000539,0.00000152,-0.0
 0001577,0.00000056,-0.00000071,-0.00001374,0.00004733,0.00009259,0.070
 05120,-0.12374890,-0.10972345,-0.00027143,0.00114209,0.00004510,-0.000
 19862,0.00000558,-0.00003800,-0.00000175,-0.00006676,0.00004618,-0.000
 01010,-0.00000592,-0.00000096,0.00004790,0.00000253,-0.00001512,-0.000
 00674,-0.00000470,-0.00000125,0.00014742,-0.00000842,0.00001752,-0.000
 06259,0.00000700,0.00004638,-0.00002283,0.00000355,-0.00001367,-0.0718
 2980,0.12628280,0.00011944,-0.00000587,0.00010584,-0.00050036,0.000047
 36,0.00013910,0.00006761,-0.00004663,0.00009184,0.00005735,-0.00003120
 ,0.00003799,0.00002726,-0.00002593,-0.00002546,0.00002776,0.00003185,0
 .00001846,-0.00172586,0.00485284,-0.00100666,0.00068479,-0.00085468,-0
 .00119552,0.00024709,0.00007643,-0.00005892,0.00115176,-0.00118682,0.0
 0085237,0.01416638,-0.01259560,-0.02686672,-0.00027276,0.00011247,0.00
 023564,-0.00022057,-0.00010249,-0.00011544,-0.00004583,-0.00001010,0.0
 0009125,-0.00007123,0.00000369,0.00003181,-0.00003610,0.00005957,-0.00
 004417,-0.00014330,0.00040402,-0.00029696,-0.00039628,0.00055137,-0.00
 015306,-0.00007857,0.00008880,0.00021890,-0.00000299,-0.00002235,-0.00
 003282,-0.00000023,-0.00000021,-0.00000189,0.00001186,-0.00000213,-0.0
 0000403,-0.00002000,0.00000660,-0.00004241,0.09324680,-0.09877095,-0.1
 9471120,0.00007959,-0.00091004,-0.00016216,0.00018332,0.00004459,0.000
 07771,0.00006519,0.00007288,0.00001947,-0.00000166,-0.00001001,-0.0000
 1104,-0.00001351,0.00000859,0.00001195,0.00000170,-0.00000039,0.000001
 03,-0.00005480,0.00000071,-0.00008017,0.00001771,0.00000044,-0.0000121
 6,-0.00002366,-0.00001888,0.00002330,-0.10475618,0.10532243,0.21689308
 ,0.00011868,-0.00010648,0.00036867,-0.00013580,-0.00030617,0.00108410,
 -0.00009831,-0.00003920,0.00030845,0.00012036,0.00000730,0.00004178,-0
 .00012520,-0.00007071,-0.00006447,-0.00013079,0.00010164,-0.00010109,-
 0.00012840,0.00023069,0.00013441,-0.00009654,0.00002159,-0.00006377,0.
 00021303,0.00000624,0.00030584,0.00050364,-0.00044822,0.00061225,0.004
 45375,-0.00100155,0.00142779,-0.00002822,0.00005522,0.00007784,0.00027
 154,0.00015553,0.00015748,-0.00000469,-0.00002258,0.00003621,0.0000182
 7,0.00000856,-0.00004936,0.00000331,-0.00000981,0.00000010,0.00002631,
 -0.00001624,-0.00001339,-0.00000464,-0.00008072,0.00008944,-0.00008360
 ,0.00001892,-0.00001345,0.00004494,0.00003042,-0.00005597,0.00000129,-
 0.00000749,-0.00000203,0.00000237,0.00000393,-0.00000383,-0.00000287,-
 0.00003482,-0.00014054,-0.30494455,0.05083237,-0.07221235,0.00025090,0
 .00016335,-0.00047762,0.00012253,0.00011420,-0.00003695,-0.00001372,0.
 00001316,0.00001988,-0.00002915,-0.00004416,-0.00000063,-0.00000160,0.
 00004294,0.00001803,-0.00000237,-0.00000327,0.,-0.00013689,0.00006436,
 0.00007457,0.00002285,-0.00007876,-0.00003391,0.00003247,0.00001939,-0
 .00002382,-0.01045307,0.00035817,-0.00431153,0.32040205,0.00028081,0.0
 0016603,0.00001497,-0.00010420,0.00007610,-0.00005974,-0.00022763,0.00
 012536,-0.00002659,0.00029401,-0.00005223,0.00009333,-0.00002435,-0.00
 018886,0.00001116,-0.00033185,0.00006547,-0.00015342,0.00016667,0.0003
 5581,-0.00091781,0.00014203,-0.00010757,-0.00016462,0.00119669,0.00018
 577,0.00032003,-0.00256725,-0.00133091,0.00291036,0.02229086,-0.007804
 97,0.00822035,-0.00035071,0.00010860,-0.00039199,0.00028858,0.00018094
 ,0.00007969,-0.00007483,-0.00018583,0.00033130,0.00003347,-0.00003085,
 0.00006192,-0.00002403,-0.00000233,0.00002064,-0.00004420,0.00002601,-
 0.00000751,-0.00012835,0.00018025,-0.00014175,-0.00014616,-0.00000715,
 0.00015094,0.00001221,-0.00009553,0.00006618,0.00000259,-0.00000780,-0
 .00000765,0.00000628,-0.00001263,-0.00001343,-0.00004189,-0.00004932,-
 0.00009466,0.04311073,-0.05867392,0.01288360,0.00114542,0.00050069,0.0
 0011186,0.00006808,-0.00037092,0.00023195,0.00008668,0.00001255,0.0000
 0298,0.00001467,0.00010866,0.00008311,0.00013577,-0.00006666,-0.000130
 08,-0.00000389,-0.00001210,-0.00000500,0.00024465,0.00028837,-0.000108
 98,-0.00025413,0.00001884,0.00018851,-0.00003111,-0.00004137,-0.000040
 36,0.01422266,-0.00237423,0.00473750,-0.05418902,0.06125658,0.00039516
 ,0.00038125,0.00002717,0.00016863,0.00009769,-0.00071941,0.00035340,-0
 .00042831,-0.00006274,-0.00010431,-0.00016420,-0.00002597,0.00005048,0
 .00015394,0.00001009,-0.00009986,-0.00016175,-0.00005609,-0.00146796,0
 .00007510,0.00096838,-0.00022385,0.00022291,0.00018594,-0.00129771,0.0
 0053916,-0.00029565,0.00307486,0.00191084,-0.00328035,-0.03046259,0.00
 826255,-0.01248932,0.00007894,0.00021123,-0.00005843,0.00023565,-0.000
 09379,-0.00009705,0.00006216,0.00017885,-0.00029002,0.00002841,0.00003
 457,-0.00025425,0.00004555,-0.00000122,-0.00001435,0.00003726,-0.00004
 333,0.00000989,-0.00025519,0.00035501,-0.00008719,0.00002510,-0.000077
 75,-0.00020042,-0.00006234,0.00000728,0.00003706,-0.00001179,0.0000043
 4,-0.00000357,-0.00001006,0.00000552,0.00000747,-0.00001472,-0.0000070
 3,-0.00002713,-0.06134458,0.01274900,-0.06608994,-0.00038046,-0.000811
 17,0.00060763,-0.00000630,0.00001403,0.00014174,0.00004068,0.00000396,
 -0.00000831,0.00012294,0.00023173,0.00015679,0.00001367,-0.00016628,-0
 .00018256,0.00001224,0.00001097,-0.00000397,0.00017379,0.00012987,-0.0
 0025538,-0.00016786,0.00005104,0.00018222,-0.00004621,-0.00011340,0.00
 002294,0.02207269,-0.00356620,0.00855971,0.07454147,-0.02107927,0.0750
 3112,-0.00020183,-0.00010927,-0.00002394,-0.00005608,0.00017213,0.0000
 5172,0.00005040,-0.00024063,-0.00010051,-0.00014863,0.00006841,-0.0000
 8056,0.00001394,0.00012198,0.00001570,0.00029246,-0.00001711,0.0000801
 6,-0.00016465,-0.00076993,-0.00049373,0.00013923,0.00015771,0.00019005
 ,-0.00002436,-0.00001208,-0.00006265,0.00132770,0.00172010,0.00012727,
 -0.00090466,0.00064798,0.00053932,0.00005452,-0.00010023,-0.00001330,0
 .00005295,-0.00012547,-0.00020067,-0.00000391,-0.00003148,0.00000392,-
 0.00003756,-0.00000707,0.00002215,-0.00007651,0.00009583,-0.00005650,-
 0.00001112,-0.00001986,0.00003034,-0.00004384,0.00001093,-0.00004308,0
 .00004559,0.00004246,0.00052616,0.00003118,0.00004559,-0.00004488,0.00
 000912,0.00001144,0.00000664,-0.00000868,-0.00000082,0.00000936,0.0000
 1649,0.00011050,0.00016627,-0.11530705,-0.11562648,-0.02960799,0.00055
 135,0.00094388,-0.00001115,-0.00003350,0.00009853,-0.00002922,-0.00003
 441,-0.00001906,-0.00000107,-0.00002015,-0.00007275,-0.00005400,-0.000
 04064,0.00004763,0.00006460,0.00000019,0.00000114,0.00000257,-0.000091
 02,-0.00011940,0.00002562,0.00009915,-0.00000677,-0.00007588,-0.000004
 05,0.00001207,0.00001877,0.00813621,0.01389451,0.00251979,-0.01018790,
 -0.02519927,-0.00557731,0.11658009,0.00012819,-0.00008022,-0.00000594,
 -0.00009067,0.00001737,0.00011389,-0.00008347,-0.00003292,0.00005384,0
 .00002184,0.00001632,0.00000344,-0.00001839,-0.00002960,0.00000064,-0.
 00006421,0.00007697,0.00000078,0.00060976,0.00044643,-0.00152128,0.000
 19436,0.00037128,-0.00000856,0.00022531,0.00042581,0.00000743,-0.00167
 669,0.00012498,-0.00116538,-0.01027411,-0.02173977,-0.00083045,-0.0003
 8131,-0.00068017,-0.00031053,0.00101932,0.00000112,0.00052738,-0.00000
 821,-0.00002060,0.00007861,0.00005424,0.00006793,-0.00014857,-0.000000
 96,0.00010759,-0.00015153,0.00003980,-0.00003383,0.00004926,0.00007361
 ,0.00005439,0.00001822,-0.00020545,0.00054417,0.00070146,0.00003721,0.
 00000692,-0.00001285,-0.00000108,0.00000165,-0.00000385,0.00000371,0.0
 0000182,0.00000162,-0.00001358,0.00002783,-0.00003006,-0.11180929,-0.2
 4471909,-0.04983227,0.00137655,0.00103869,0.00367637,0.00025977,-0.000
 14612,0.00013182,-0.00009265,-0.00003035,-0.00011937,0.00000199,-0.000
 01727,-0.00000505,-0.00002615,0.00001897,0.00001283,0.00000404,0.00000
 150,0.00000046,-0.00012698,0.00007091,-0.00006225,0.00003298,-0.000016
 46,-0.00002822,-0.00000309,-0.00000478,0.00000696,-0.00769250,-0.01000
 093,-0.00182785,0.00421124,0.00775916,0.00108288,0.12427487,0.26637029
 ,-0.00005019,0.00014392,0.00006458,-0.00013327,-0.00024667,-0.00016415
 ,0.00006283,-0.00000594,0.00007344,-0.00001949,-0.00003567,-0.00001300
 ,0.00003127,-0.00000202,-0.00001515,-0.00001941,-0.00005705,0.00000992
 ,0.00040563,0.00213364,0.00233968,-0.00015384,-0.00014934,-0.00005540,
 0.00000656,-0.00021549,0.00013977,0.00230996,0.00001367,0.00109976,0.0
 1645182,0.03323177,0.00073277,0.00043167,0.00069007,0.00078219,-0.0005
 2805,-0.00038474,0.00012554,0.00000889,-0.00000190,-0.00000919,0.00003
 174,-0.00004571,0.00004979,-0.00005198,-0.00012388,0.00005598,-0.00004
 759,-0.00004401,-0.00002534,-0.00024551,-0.00006206,-0.00009614,-0.000
 28252,-0.00055797,-0.00043072,-0.00004253,-0.00001551,-0.00002549,-0.0
 0000595,-0.00000470,-0.00000178,-0.00000335,0.00000112,0.00000495,0.00
 002134,-0.00002930,-0.00001216,-0.03431694,-0.06004971,-0.06405825,-0.
 00118664,0.00088260,-0.00547933,-0.00008450,0.00033724,-0.00022498,0.0
 0007084,0.00009171,0.00006922,0.00001453,0.00001430,-0.00000042,-0.000
 05366,-0.00001559,0.00002489,0.00000385,0.00000948,0.00000201,-0.00006
 419,-0.00014043,0.00013725,0.00007859,-0.00001097,-0.00006172,0.000049
 33,0.00003554,0.00000976,-0.01307168,-0.01780503,-0.00258867,-0.001693
 58,-0.00717750,-0.00144604,0.03207603,0.04959612,0.06898641\\0.0000056
 1,0.00000156,0.00000056,-0.00000290,0.00000316,-0.00000010,-0.00000167
 ,0.00000199,-0.00000023,0.00000227,0.00000130,-0.00000069,-0.00000315,
 -0.00000786,-0.00000169,-0.00000028,0.00000267,0.00000486,0.00000100,-
 0.00000357,-0.00000084,-0.00000211,-0.00000052,0.00000218,0.00000040,0
 .00000102,0.00000013,0.00000112,0.00000004,-0.00000049,0.00000081,0.00
 000893,-0.00000500,0.00000016,-0.00001727,0.00000310,-0.00000053,0.000
 00061,0.,-0.00000012,0.00000060,0.00000026,-0.00000008,0.00000057,0.00
 000057,0.00000107,0.00000091,0.00000032,0.00000018,0.00000127,-0.00000
 004,-0.00000013,0.00000033,0.00000046,-0.00000010,-0.00000003,0.000000
 43,-0.00000051,-0.00000094,0.00000124,-0.00000023,0.00000061,-0.000000
 59,-0.00000126,-0.00000044,-0.00000033,-0.00000044,-0.00000003,-0.0000
 0066,-0.00000050,-0.00000273,0.00000194,0.00000113,-0.00000858,0.00000
 137,-0.00001371,0.00000745,-0.00000291,0.00000696,0.00000964,0.0000049
 0,0.00000232,-0.00000031,-0.00001461,-0.00001579,-0.00000105,0.0000196
 4,0.00000257,-0.00000223,-0.00000267,-0.00002383,0.00000289,-0.0000022
 4,0.00003856,0.00000232,-0.00001010,0.00000289,-0.00000439,0.00000183,
 0.00000093,0.00000106,-0.00000002,-0.00000013,0.00000022,-0.00000046,-
 0.00000049,0.00000082,-0.00000012\\\@


 THE MORE PROGRESS PHYSICAL SCIENCES MAKE, THE MORE THEY TEND TO ENTER
 THE DOMAIN OF MATHEMATICS, WHICH IS A KIND OF CENTRE TO WHICH THEY ALL
 CONVERGE.  WE MAY EVEN JUDGE THE DEGREE OF PERFECTION TO WHICH A 
 SCIENCE HAS ARRIVED BY THE FACILITY WITH WHICH IT MAY BE SUBMITTED
 TO CALCULATION.

                               -- ADOLPHE QUETELET, 1796-1874
 Job cpu time:       1 days  0 hours 15 minutes 36.7 seconds.
 Elapsed time:       0 days  0 hours 52 minutes  1.6 seconds.
 File lengths (MBytes):  RWF=   1060 Int=      0 D2E=      0 Chk=     28 Scr=      8
 Normal termination of Gaussian 16 at Fri Jan 27 22:11:14 2023.
