 Entering Gaussian System, Link 0=g16
 Input=NicPySa3h1wB97XDaVDZ180K.gjf
 Output=NicPySa3h1wB97XDaVDZ180K.log
 Initial command:
 /sw/contrib/gaussian/g16/A03/g16/l1.exe "/gscratch/scrubbed/gds001/Gau-308988.inp" -scrdir="/gscratch/scrubbed/gds001/"
 Entering Link 1 = /sw/contrib/gaussian/g16/A03/g16/l1.exe PID=    308989.
  
 Copyright (c) 1988,1990,1992,1993,1995,1998,2003,2009,2016,
            Gaussian, Inc.  All Rights Reserved.
  
 This is part of the Gaussian(R) 16 program.  It is based on
 the Gaussian(R) 09 system (copyright 2009, Gaussian, Inc.),
 the Gaussian(R) 03 system (copyright 2003, Gaussian, Inc.),
 the Gaussian(R) 98 system (copyright 1998, Gaussian, Inc.),
 the Gaussian(R) 94 system (copyright 1995, Gaussian, Inc.),
 the Gaussian 92(TM) system (copyright 1992, Gaussian, Inc.),
 the Gaussian 90(TM) system (copyright 1990, Gaussian, Inc.),
 the Gaussian 88(TM) system (copyright 1988, Gaussian, Inc.),
 the Gaussian 86(TM) system (copyright 1986, Carnegie Mellon
 University), and the Gaussian 82(TM) system (copyright 1983,
 Carnegie Mellon University). Gaussian is a federally registered
 trademark of Gaussian, Inc.
  
 This software contains proprietary and confidential information,
 including trade secrets, belonging to Gaussian, Inc.
  
 This software is provided under written license and may be
 used, copied, transmitted, or stored only in accord with that
 written license.
  
 The following legend is applicable only to US Government
 contracts under FAR:
  
                    RESTRICTED RIGHTS LEGEND
  
 Use, reproduction and disclosure by the US Government is
 subject to restrictions as set forth in subparagraphs (a)
 and (c) of the Commercial Computer Software - Restricted
 Rights clause in FAR 52.227-19.
  
 Gaussian, Inc.
 340 Quinnipiac St., Bldg. 40, Wallingford CT 06492
  
  
 ---------------------------------------------------------------
 Warning -- This program may not be used in any manner that
 competes with the business of Gaussian, Inc. or will provide
 assistance to any competitor of Gaussian, Inc.  The licensee
 of this program is prohibited from giving any competitor of
 Gaussian, Inc. access to this program.  By using this program,
 the user acknowledges that Gaussian, Inc. is engaged in the
 business of creating and licensing software in the field of
 computational chemistry and represents and warrants to the
 licensee that it is not a competitor of Gaussian, Inc. and that
 it will not use this program in any manner prohibited above.
 ---------------------------------------------------------------
  

 Cite this work as:
 Gaussian 16, Revision A.03,
 M. J. Frisch, G. W. Trucks, H. B. Schlegel, G. E. Scuseria, 
 M. A. Robb, J. R. Cheeseman, G. Scalmani, V. Barone, 
 G. A. Petersson, H. Nakatsuji, X. Li, M. Caricato, A. V. Marenich, 
 J. Bloino, B. G. Janesko, R. Gomperts, B. Mennucci, H. P. Hratchian, 
 J. V. Ortiz, A. F. Izmaylov, J. L. Sonnenberg, D. Williams-Young, 
 F. Ding, F. Lipparini, F. Egidi, J. Goings, B. Peng, A. Petrone, 
 T. Henderson, D. Ranasinghe, V. G. Zakrzewski, J. Gao, N. Rega, 
 G. Zheng, W. Liang, M. Hada, M. Ehara, K. Toyota, R. Fukuda, 
 J. Hasegawa, M. Ishida, T. Nakajima, Y. Honda, O. Kitao, H. Nakai, 
 T. Vreven, K. Throssell, J. A. Montgomery, Jr., J. E. Peralta, 
 F. Ogliaro, M. J. Bearpark, J. J. Heyd, E. N. Brothers, K. N. Kudin, 
 V. N. Staroverov, T. A. Keith, R. Kobayashi, J. Normand, 
 K. Raghavachari, A. P. Rendell, J. C. Burant, S. S. Iyengar, 
 J. Tomasi, M. Cossi, J. M. Millam, M. Klene, C. Adamo, R. Cammi, 
 J. W. Ochterski, R. L. Martin, K. Morokuma, O. Farkas, 
 J. B. Foresman, and D. J. Fox, Gaussian, Inc., Wallingford CT, 2016.
 
 ******************************************
 Gaussian 16:  ES64L-G16RevA.03 25-Dec-2016
                15-Nov-2021 
 ******************************************
 %nprocshared=32
 Will use up to   32 processors via shared memory.
 %mem=41GB
 ---------------------------------------------
 # wB97XD/aug-cc-pVDZ opt freq temperature=180
 ---------------------------------------------
 1/18=20,19=15,26=3,38=1,112=180000/1,3;
 2/9=110,12=2,17=6,18=5,40=1/2;
 3/5=16,7=10,11=2,25=1,30=1,71=1,74=-58/1,2,3;
 4//1;
 5/5=2,38=5/2;
 6/7=2,8=2,9=2,10=2,28=1/1;
 7//1,2,3,16;
 1/18=20,19=15,26=3/3(2);
 2/9=110/2;
 99//99;
 2/9=110/2;
 3/5=16,7=10,11=2,25=1,30=1,71=1,74=-58/1,2,3;
 4/5=5,16=3,69=1/1;
 5/5=2,38=5/2;
 7//1,2,3,16;
 1/18=20,19=15,26=3/3(-5);
 2/9=110/2;
 6/7=2,8=2,9=2,10=2,19=2,28=1/1;
 99/9=1/99;
 --------
 Nicotine
 --------
 Symbolic Z-matrix:
 Charge =  1 Multiplicity = 1
 C                    -1.12628   2.39931  -0.19846 
 C                    -1.1873    1.00298  -0.15662 
 C                     0.01503   0.3143   -0.07431 
 N                     1.18202   0.97385  -0.02887 
 C                     1.25834   2.31205  -0.05932 
 C                     0.09867   3.06178  -0.14583 
 C                    -2.50638   0.26016  -0.15763 
 N                    -2.34217  -1.12313  -0.58568 
 C                    -3.3515   -1.91247   0.11508 
 C                    -3.32134  -1.32702   1.52023 
 C                    -3.15041   0.17989   1.25906 
 O                     3.43883  -0.35095   0.11641 
 O                     4.79281  -1.20798  -2.12642 
 H                    -3.09368  -2.97777   0.07552 
 H                    -4.22623  -1.55103   2.09449 
 H                    -2.46002  -1.72606   2.07038 
 H                    -4.12163   0.68741   1.24647 
 H                    -2.53528   0.67022   2.02209 
 H                    -4.35459  -1.78584  -0.33995 
 H                    -3.19015   0.80923  -0.83467 
 H                     0.05019  -0.77233  -0.05146 
 H                     2.25624   2.74147  -0.01747 
 H                     0.15744   4.14721  -0.17651 
 H                    -2.04926   2.97547  -0.27451 
 C                    -2.33727  -1.29731  -2.02604 
 H                     2.08459   0.41662   0.03025 
 H                     3.95209  -0.6824   -0.64205 
 H                     3.86729  -0.65604   0.93613 
 H                     5.59437  -0.79717  -2.46123 
 H                     4.80352  -2.10985  -2.45768 
 O                     4.5432   -1.13217   2.51798 
 H                     5.30517  -0.70948   2.92306 
 H                     4.51719  -2.02309   2.87689 
 H                    -2.17708  -2.35445  -2.26902 
 H                    -1.51941  -0.71897  -2.4773 
 H                    -3.28777  -0.97149  -2.49209 
 
 Add virtual bond connecting atoms H26        and O12        Dist= 2.95D+00.
 Add virtual bond connecting atoms O31        and H28        Dist= 3.37D+00.
 Add virtual bond connecting atoms H27        and O13        Dist= 3.37D+00.

 GradGradGradGradGradGradGradGradGradGradGradGradGradGradGradGradGradGrad
 Berny optimization.
 Initialization pass.
                           ----------------------------
                           !    Initial Parameters    !
                           ! (Angstroms and Degrees)  !
 --------------------------                            --------------------------
 ! Name  Definition              Value          Derivative Info.                !
 --------------------------------------------------------------------------------
 ! R1    R(1,2)                  1.3983         estimate D2E/DX2                !
 ! R2    R(1,6)                  1.3936         estimate D2E/DX2                !
 ! R3    R(1,24)                 1.0907         estimate D2E/DX2                !
 ! R4    R(2,3)                  1.388          estimate D2E/DX2                !
 ! R5    R(2,7)                  1.5139         estimate D2E/DX2                !
 ! R6    R(3,4)                  1.3412         estimate D2E/DX2                !
 ! R7    R(3,21)                 1.0874         estimate D2E/DX2                !
 ! R8    R(4,5)                  1.3407         estimate D2E/DX2                !
 ! R9    R(4,26)                 1.0624         estimate D2E/DX2                !
 ! R10   R(5,6)                  1.3836         estimate D2E/DX2                !
 ! R11   R(5,22)                 1.0872         estimate D2E/DX2                !
 ! R12   R(6,23)                 1.0874         estimate D2E/DX2                !
 ! R13   R(7,8)                  1.4573         estimate D2E/DX2                !
 ! R14   R(7,11)                 1.5583         estimate D2E/DX2                !
 ! R15   R(7,20)                 1.1079         estimate D2E/DX2                !
 ! R16   R(8,9)                  1.4604         estimate D2E/DX2                !
 ! R17   R(8,25)                 1.4509         estimate D2E/DX2                !
 ! R18   R(9,10)                 1.5225         estimate D2E/DX2                !
 ! R19   R(9,14)                 1.0968         estimate D2E/DX2                !
 ! R20   R(9,19)                 1.1087         estimate D2E/DX2                !
 ! R21   R(10,11)                1.5389         estimate D2E/DX2                !
 ! R22   R(10,15)                1.0949         estimate D2E/DX2                !
 ! R23   R(10,16)                1.0972         estimate D2E/DX2                !
 ! R24   R(11,17)                1.0959         estimate D2E/DX2                !
 ! R25   R(11,18)                1.0959         estimate D2E/DX2                !
 ! R26   R(12,26)                1.559          estimate D2E/DX2                !
 ! R27   R(12,27)                0.9739         estimate D2E/DX2                !
 ! R28   R(12,28)                0.974          estimate D2E/DX2                !
 ! R29   R(13,27)                1.785          estimate D2E/DX2                !
 ! R30   R(13,29)                0.9609         estimate D2E/DX2                !
 ! R31   R(13,30)                0.9608         estimate D2E/DX2                !
 ! R32   R(25,34)                1.0965         estimate D2E/DX2                !
 ! R33   R(25,35)                1.0987         estimate D2E/DX2                !
 ! R34   R(25,36)                1.1076         estimate D2E/DX2                !
 ! R35   R(28,31)                1.7849         estimate D2E/DX2                !
 ! R36   R(31,32)                0.9609         estimate D2E/DX2                !
 ! R37   R(31,33)                0.9608         estimate D2E/DX2                !
 ! A1    A(2,1,6)              120.7921         estimate D2E/DX2                !
 ! A2    A(2,1,24)             119.5165         estimate D2E/DX2                !
 ! A3    A(6,1,24)             119.6913         estimate D2E/DX2                !
 ! A4    A(1,2,3)              117.351          estimate D2E/DX2                !
 ! A5    A(1,2,7)              121.8697         estimate D2E/DX2                !
 ! A6    A(3,2,7)              120.7536         estimate D2E/DX2                !
 ! A7    A(2,3,4)              120.7767         estimate D2E/DX2                !
 ! A8    A(2,3,21)             121.6712         estimate D2E/DX2                !
 ! A9    A(4,3,21)             117.5507         estimate D2E/DX2                !
 ! A10   A(3,4,5)              122.6554         estimate D2E/DX2                !
 ! A11   A(3,4,26)             118.892          estimate D2E/DX2                !
 ! A12   A(5,4,26)             118.4523         estimate D2E/DX2                !
 ! A13   A(4,5,6)              119.6399         estimate D2E/DX2                !
 ! A14   A(4,5,22)             116.463          estimate D2E/DX2                !
 ! A15   A(6,5,22)             123.8965         estimate D2E/DX2                !
 ! A16   A(1,6,5)              118.7824         estimate D2E/DX2                !
 ! A17   A(1,6,23)             121.3945         estimate D2E/DX2                !
 ! A18   A(5,6,23)             119.8223         estimate D2E/DX2                !
 ! A19   A(2,7,8)              111.5781         estimate D2E/DX2                !
 ! A20   A(2,7,11)             112.6307         estimate D2E/DX2                !
 ! A21   A(2,7,20)             107.1577         estimate D2E/DX2                !
 ! A22   A(8,7,11)             105.3501         estimate D2E/DX2                !
 ! A23   A(8,7,20)             111.1298         estimate D2E/DX2                !
 ! A24   A(11,7,20)            109.0288         estimate D2E/DX2                !
 ! A25   A(7,8,9)              107.1108         estimate D2E/DX2                !
 ! A26   A(7,8,25)             113.9502         estimate D2E/DX2                !
 ! A27   A(9,8,25)             114.4435         estimate D2E/DX2                !
 ! A28   A(8,9,10)             102.7861         estimate D2E/DX2                !
 ! A29   A(8,9,14)             110.1944         estimate D2E/DX2                !
 ! A30   A(8,9,19)             111.5069         estimate D2E/DX2                !
 ! A31   A(10,9,14)            113.7109         estimate D2E/DX2                !
 ! A32   A(10,9,19)            110.6567         estimate D2E/DX2                !
 ! A33   A(14,9,19)            107.9877         estimate D2E/DX2                !
 ! A34   A(9,10,11)            102.8327         estimate D2E/DX2                !
 ! A35   A(9,10,15)            112.8929         estimate D2E/DX2                !
 ! A36   A(9,10,16)            109.784          estimate D2E/DX2                !
 ! A37   A(11,10,15)           112.4054         estimate D2E/DX2                !
 ! A38   A(11,10,16)           110.7345         estimate D2E/DX2                !
 ! A39   A(15,10,16)           108.1436         estimate D2E/DX2                !
 ! A40   A(7,11,10)            104.5154         estimate D2E/DX2                !
 ! A41   A(7,11,17)            109.3886         estimate D2E/DX2                !
 ! A42   A(7,11,18)            112.2078         estimate D2E/DX2                !
 ! A43   A(10,11,17)           110.9155         estimate D2E/DX2                !
 ! A44   A(10,11,18)           112.4762         estimate D2E/DX2                !
 ! A45   A(17,11,18)           107.3512         estimate D2E/DX2                !
 ! A46   A(26,12,27)           125.6118         estimate D2E/DX2                !
 ! A47   A(26,12,28)           125.6522         estimate D2E/DX2                !
 ! A48   A(27,12,28)           108.4811         estimate D2E/DX2                !
 ! A49   A(27,13,29)           123.83           estimate D2E/DX2                !
 ! A50   A(27,13,30)           124.6315         estimate D2E/DX2                !
 ! A51   A(29,13,30)           105.7754         estimate D2E/DX2                !
 ! A52   A(8,25,34)            109.6479         estimate D2E/DX2                !
 ! A53   A(8,25,35)            110.3087         estimate D2E/DX2                !
 ! A54   A(8,25,36)            112.3034         estimate D2E/DX2                !
 ! A55   A(34,25,35)           107.9239         estimate D2E/DX2                !
 ! A56   A(34,25,36)           108.4061         estimate D2E/DX2                !
 ! A57   A(35,25,36)           108.1287         estimate D2E/DX2                !
 ! A58   A(28,31,32)           123.8181         estimate D2E/DX2                !
 ! A59   A(28,31,33)           124.6201         estimate D2E/DX2                !
 ! A60   A(32,31,33)           105.775          estimate D2E/DX2                !
 ! A61   L(4,26,12,34,-1)      181.9247         estimate D2E/DX2                !
 ! A62   L(12,27,13,25,-1)     176.332          estimate D2E/DX2                !
 ! A63   L(12,28,31,10,-1)     176.3805         estimate D2E/DX2                !
 ! A64   L(4,26,12,34,-2)      178.9582         estimate D2E/DX2                !
 ! A65   L(12,27,13,25,-2)     176.2502         estimate D2E/DX2                !
 ! A66   L(12,28,31,10,-2)     183.7714         estimate D2E/DX2                !
 ! D1    D(6,1,2,3)             -0.603          estimate D2E/DX2                !
 ! D2    D(6,1,2,7)            177.5673         estimate D2E/DX2                !
 ! D3    D(24,1,2,3)           179.3166         estimate D2E/DX2                !
 ! D4    D(24,1,2,7)            -2.5131         estimate D2E/DX2                !
 ! D5    D(2,1,6,5)              0.3866         estimate D2E/DX2                !
 ! D6    D(2,1,6,23)          -179.9291         estimate D2E/DX2                !
 ! D7    D(24,1,6,5)          -179.5329         estimate D2E/DX2                !
 ! D8    D(24,1,6,23)            0.1515         estimate D2E/DX2                !
 ! D9    D(1,2,3,4)              0.4092         estimate D2E/DX2                !
 ! D10   D(1,2,3,21)          -179.1449         estimate D2E/DX2                !
 ! D11   D(7,2,3,4)           -177.7826         estimate D2E/DX2                !
 ! D12   D(7,2,3,21)             2.6633         estimate D2E/DX2                !
 ! D13   D(1,2,7,8)            159.5601         estimate D2E/DX2                !
 ! D14   D(1,2,7,11)           -82.192          estimate D2E/DX2                !
 ! D15   D(1,2,7,20)            37.7026         estimate D2E/DX2                !
 ! D16   D(3,2,7,8)            -22.3311         estimate D2E/DX2                !
 ! D17   D(3,2,7,11)            95.9168         estimate D2E/DX2                !
 ! D18   D(3,2,7,20)          -144.1886         estimate D2E/DX2                !
 ! D19   D(2,3,4,5)              0.0091         estimate D2E/DX2                !
 ! D20   D(2,3,4,26)          -179.7722         estimate D2E/DX2                !
 ! D21   D(21,3,4,5)           179.581          estimate D2E/DX2                !
 ! D22   D(21,3,4,26)           -0.2002         estimate D2E/DX2                !
 ! D23   D(3,4,5,6)             -0.2429         estimate D2E/DX2                !
 ! D24   D(3,4,5,22)          -179.9716         estimate D2E/DX2                !
 ! D25   D(26,4,5,6)           179.5393         estimate D2E/DX2                !
 ! D26   D(26,4,5,22)           -0.1894         estimate D2E/DX2                !
 ! D27   D(3,4,12,27)           87.7173         estimate D2E/DX2                !
 ! D28   D(3,4,12,28)          -87.0504         estimate D2E/DX2                !
 ! D29   D(5,4,12,27)          -92.0513         estimate D2E/DX2                !
 ! D30   D(5,4,12,28)           93.181          estimate D2E/DX2                !
 ! D31   D(4,5,6,1)              0.0415         estimate D2E/DX2                !
 ! D32   D(4,5,6,23)          -179.648          estimate D2E/DX2                !
 ! D33   D(22,5,6,1)           179.7488         estimate D2E/DX2                !
 ! D34   D(22,5,6,23)            0.0594         estimate D2E/DX2                !
 ! D35   D(2,7,8,9)            148.6345         estimate D2E/DX2                !
 ! D36   D(2,7,8,25)           -83.7405         estimate D2E/DX2                !
 ! D37   D(11,7,8,9)            26.1099         estimate D2E/DX2                !
 ! D38   D(11,7,8,25)          153.7349         estimate D2E/DX2                !
 ! D39   D(20,7,8,9)           -91.8313         estimate D2E/DX2                !
 ! D40   D(20,7,8,25)           35.7938         estimate D2E/DX2                !
 ! D41   D(2,7,11,10)         -122.5461         estimate D2E/DX2                !
 ! D42   D(2,7,11,17)          118.6345         estimate D2E/DX2                !
 ! D43   D(2,7,11,18)           -0.3889         estimate D2E/DX2                !
 ! D44   D(8,7,11,10)           -0.7008         estimate D2E/DX2                !
 ! D45   D(8,7,11,17)         -119.5201         estimate D2E/DX2                !
 ! D46   D(8,7,11,18)          121.4565         estimate D2E/DX2                !
 ! D47   D(20,7,11,10)         118.6465         estimate D2E/DX2                !
 ! D48   D(20,7,11,17)          -0.1729         estimate D2E/DX2                !
 ! D49   D(20,7,11,18)        -119.1963         estimate D2E/DX2                !
 ! D50   D(7,8,9,10)           -41.4154         estimate D2E/DX2                !
 ! D51   D(7,8,9,14)          -162.9376         estimate D2E/DX2                !
 ! D52   D(7,8,9,19)            77.1548         estimate D2E/DX2                !
 ! D53   D(25,8,9,10)         -168.7513         estimate D2E/DX2                !
 ! D54   D(25,8,9,14)           69.7265         estimate D2E/DX2                !
 ! D55   D(25,8,9,19)          -50.1811         estimate D2E/DX2                !
 ! D56   D(7,8,25,34)          178.1418         estimate D2E/DX2                !
 ! D57   D(7,8,25,35)           59.4192         estimate D2E/DX2                !
 ! D58   D(7,8,25,36)          -61.2721         estimate D2E/DX2                !
 ! D59   D(9,8,25,34)          -58.1107         estimate D2E/DX2                !
 ! D60   D(9,8,25,35)         -176.8332         estimate D2E/DX2                !
 ! D61   D(9,8,25,36)           62.4755         estimate D2E/DX2                !
 ! D62   D(8,9,10,11)           39.2238         estimate D2E/DX2                !
 ! D63   D(8,9,10,15)          160.592          estimate D2E/DX2                !
 ! D64   D(8,9,10,16)          -78.6694         estimate D2E/DX2                !
 ! D65   D(14,9,10,11)         158.321          estimate D2E/DX2                !
 ! D66   D(14,9,10,15)         -80.3108         estimate D2E/DX2                !
 ! D67   D(14,9,10,16)          40.4278         estimate D2E/DX2                !
 ! D68   D(19,9,10,11)         -79.9409         estimate D2E/DX2                !
 ! D69   D(19,9,10,15)          41.4273         estimate D2E/DX2                !
 ! D70   D(19,9,10,16)         162.1659         estimate D2E/DX2                !
 ! D71   D(9,10,11,7)          -23.3309         estimate D2E/DX2                !
 ! D72   D(9,10,11,17)          94.4477         estimate D2E/DX2                !
 ! D73   D(9,10,11,18)        -145.3121         estimate D2E/DX2                !
 ! D74   D(15,10,11,7)        -145.0307         estimate D2E/DX2                !
 ! D75   D(15,10,11,17)        -27.2521         estimate D2E/DX2                !
 ! D76   D(15,10,11,18)         92.9881         estimate D2E/DX2                !
 ! D77   D(16,10,11,7)          93.8899         estimate D2E/DX2                !
 ! D78   D(16,10,11,17)       -148.3315         estimate D2E/DX2                !
 ! D79   D(16,10,11,18)        -28.0913         estimate D2E/DX2                !
 ! D80   D(26,12,13,29)        106.1943         estimate D2E/DX2                !
 ! D81   D(26,12,13,30)       -102.0299         estimate D2E/DX2                !
 ! D82   D(28,12,13,29)        -78.9156         estimate D2E/DX2                !
 ! D83   D(28,12,13,30)         72.8602         estimate D2E/DX2                !
 ! D84   D(26,12,31,32)       -106.2191         estimate D2E/DX2                !
 ! D85   D(26,12,31,33)        102.0823         estimate D2E/DX2                !
 ! D86   D(27,12,31,32)         78.9265         estimate D2E/DX2                !
 ! D87   D(27,12,31,33)        -72.7722         estimate D2E/DX2                !
 --------------------------------------------------------------------------------
 Trust Radius=3.00D-01 FncErr=1.00D-07 GrdErr=1.00D-06 EigMax=2.50D+02 EigMin=1.00D-04
 Number of steps in this run=    200 maximum allowed number of steps=    216.
 GradGradGradGradGradGradGradGradGradGradGradGradGradGradGradGradGradGrad

                          Input orientation:                          
 ---------------------------------------------------------------------
 Center     Atomic      Atomic             Coordinates (Angstroms)
 Number     Number       Type             X           Y           Z
 ---------------------------------------------------------------------
      1          6           0       -1.126285    2.399308   -0.198456
      2          6           0       -1.187296    1.002980   -0.156621
      3          6           0        0.015028    0.314299   -0.074314
      4          7           0        1.182016    0.973853   -0.028873
      5          6           0        1.258340    2.312054   -0.059315
      6          6           0        0.098666    3.061785   -0.145832
      7          6           0       -2.506384    0.260162   -0.157630
      8          7           0       -2.342166   -1.123130   -0.585680
      9          6           0       -3.351501   -1.912474    0.115077
     10          6           0       -3.321341   -1.327022    1.520225
     11          6           0       -3.150407    0.179890    1.259056
     12          8           0        3.438832   -0.350950    0.116407
     13          8           0        4.792813   -1.207978   -2.126424
     14          1           0       -3.093681   -2.977769    0.075520
     15          1           0       -4.226235   -1.551034    2.094488
     16          1           0       -2.460018   -1.726061    2.070384
     17          1           0       -4.121632    0.687412    1.246468
     18          1           0       -2.535279    0.670220    2.022093
     19          1           0       -4.354588   -1.785840   -0.339951
     20          1           0       -3.190148    0.809229   -0.834674
     21          1           0        0.050193   -0.772325   -0.051459
     22          1           0        2.256238    2.741470   -0.017470
     23          1           0        0.157444    4.147207   -0.176512
     24          1           0       -2.049256    2.975471   -0.274507
     25          6           0       -2.337275   -1.297313   -2.026044
     26          1           0        2.084590    0.416623    0.030253
     27          1           0        3.952092   -0.682402   -0.642052
     28          1           0        3.867290   -0.656039    0.936126
     29          1           0        5.594366   -0.797166   -2.461228
     30          1           0        4.803522   -2.109849   -2.457680
     31          8           0        4.543202   -1.132165    2.517976
     32          1           0        5.305174   -0.709483    2.923063
     33          1           0        4.517189   -2.023085    2.876886
     34          1           0       -2.177082   -2.354453   -2.269024
     35          1           0       -1.519405   -0.718965   -2.477304
     36          1           0       -3.287766   -0.971489   -2.492087
 ---------------------------------------------------------------------
                    Distance matrix (angstroms):
                    1          2          3          4          5
     1  C    0.000000
     2  C    1.398286   0.000000
     3  C    2.380183   1.388034   0.000000
     4  N    2.718259   2.372932   1.341245   0.000000
     5  C    2.390274   2.775658   2.353099   1.340721   0.000000
     6  C    1.393610   2.427446   2.749689   2.355162   1.383628
     7  C    2.546033   1.513860   2.523369   3.759020   4.288715
     8  N    3.746449   2.457267   2.807857   4.138506   5.004118
     9  C    4.862237   3.641082   4.040780   5.376280   6.255213
    10  C    4.653780   3.576992   4.045720   5.289041   6.058985
    11  C    3.338746   2.556447   3.437429   4.589012   5.071615
    12  O    5.338853   4.827912   3.493045   2.620959   3.446304
    13  O    7.194810   6.673092   5.418091   4.711471   5.399636
    14  H    5.732248   4.419791   4.530368   5.823040   6.851313
    15  H    5.520189   4.563511   5.115807   6.335053   7.045770
    16  H    4.893378   3.745269   3.858581   4.996081   5.887969
    17  H    3.740387   3.267808   4.358398   5.462346   5.769630
    18  H    3.147356   2.583521   3.320492   4.256399   4.628112
    19  H    5.287478   4.224082   4.855378   6.194083   6.955318
    20  H    2.681913   2.123373   3.331104   4.448846   4.759066
    21  H    3.385995   2.166598   1.087433   2.081026   3.312563
    22  H    3.404599   3.860005   3.304151   2.068466   1.087175
    23  H    2.168777   3.419778   3.836914   3.337922   2.143244
    24  H    1.090698   2.155828   3.373897   3.808928   3.380329
    25  C    4.297858   3.179393   3.455412   4.640291   5.461135
    26  H    3.780617   3.329260   2.074727   1.062375   2.069630
    27  H    5.956813   5.430420   4.100758   3.285193   4.069723
    28  H    5.963071   5.430956   4.099081   3.286102   4.075181
    29  H    7.778479   7.385302   6.169419   5.340570   5.851287
    30  H    7.784549   7.132635   5.872529   5.340752   6.154161
    31  O    7.210644   6.674648   5.414479   4.713738   5.412522
    32  H    7.795648   7.387093   6.165877   5.343031   5.865248
    33  H    7.801544   7.134450   5.868765   5.343075   6.167236
    34  H    5.290526   4.088310   4.091984   5.232536   6.201712
    35  H    3.882180   2.908773   3.032570   4.019717   4.769656
    36  H    4.614652   3.710108   4.290376   5.461752   6.112865
                    6          7          8          9         10
     6  C    0.000000
     7  C    3.825639   0.000000
     8  N    4.864632   1.457289   0.000000
     9  C    6.059289   2.347113   1.460439   0.000000
    10  C    5.808082   2.449185   2.331350   1.522532   0.000000
    11  C    4.564592   1.558271   2.398784   2.393139   1.538899
    12  O    4.782493   5.982821   5.874447   6.967566   6.973045
    13  O    6.647453   7.701290   7.299933   8.476467   8.896725
    14  H    6.834931   3.299011   2.107521   1.096763   2.205440
    15  H    6.708346   3.363087   3.303955   2.194052   1.094894
    16  H    5.863612   2.985176   2.726186   2.157016   1.097171
    17  H    5.038557   2.182444   3.130707   2.938121   2.184800
    18  H    4.166191   2.218147   3.170785   3.312588   2.204255
    19  H    6.585486   2.763191   2.132935   1.108725   2.176779
    20  H    4.045344   1.107879   2.124872   2.887166   3.182189
    21  H    3.835578   2.759237   2.476255   3.591545   3.761000
    22  H    2.184993   5.372067   6.033516   7.288587   7.072943
    23  H    1.087445   4.712266   5.847386   7.008384   6.704330
    24  H    2.153503   2.755999   4.120820   5.073423   4.832257
    25  C    5.335798   2.438298   1.450866   2.447749   3.680393
    26  H    3.312368   4.597480   4.727196   5.914641   5.872342
    27  H    5.395745   6.544846   6.309921   7.445052   7.615366
    28  H    5.403274   6.531420   6.410258   7.373174   7.243466
    29  H    7.103188   8.488030   8.161646   9.376022   9.778678
    30  H    7.363838   8.021341   7.452440   8.553504   9.080195
    31  O    6.666258   7.667731   7.552553   8.289098   7.929976
    32  H    7.123784   8.452888   8.424025   9.179869   8.761625
    33  H    7.383500   7.984490   7.736280   8.340030   7.985461
    34  H    6.246808   3.376779   2.092142   2.694168   4.089419
    35  H    4.727366   2.704386   2.102029   3.391383   4.426844
    36  H    5.765426   2.752674   2.133434   2.772511   4.028173
                   11         12         13         14         15
    11  C    0.000000
    12  O    6.708614   0.000000
    13  O    8.745421   2.756456   0.000000
    14  H    3.372653   7.040993   8.377202   0.000000
    15  H    2.202601   8.006638   9.963785   2.719280   0.000000
    16  H    2.183470   6.364384   8.395544   2.438808   1.775032
    17  H    1.095908   7.714652   9.717831   3.982632   2.395980
    18  H    1.095916   6.353301   8.627790   4.172383   2.792587
    19  H    2.805525   7.937542   9.338113   1.784152   2.449102
    20  H    2.186630   6.796613   8.334591   3.896038   3.901834
    21  H    3.587200   3.418861   5.194970   3.842402   4.847609
    22  H    6.117436   3.313535   5.145876   7.831984   8.056576
    23  H    5.361188   5.575547   7.346211   7.835727   7.539498
    24  H    3.373370   6.429386   8.230720   6.054288   5.553433
    25  C    3.692586   6.232906   7.131354   2.795112   4.539970
    26  H    5.382489   1.559026   3.824272   6.191804   6.925262
    27  H    7.402922   0.973939   1.785050   7.444900   8.667653
    28  H    7.074682   0.973958   3.246605   7.388247   8.224838
    29  H    9.553335   3.389637   0.960910   9.309795  10.852054
    30  H    9.073148   3.403238   0.960842   8.338837  10.127735
    31  O    7.905567   2.756350   4.651721   8.227626   8.789643
    32  H    8.663530   3.389557   5.099836   9.153927   9.604296
    33  H    8.140178   3.402813   5.076759   8.166053   8.791043
    34  H    4.451697   6.422055   7.064997   2.593369   4.887202
    35  H    4.174745   5.607752   6.340847   3.754657   5.377783
    36  H    3.926272   7.241300   8.092305   3.264266   4.717337
                   16         17         18         19         20
    16  H    0.000000
    17  H    3.043789   0.000000
    18  H    2.397949   1.765901   0.000000
    19  H    3.066380   2.947536   3.862819   0.000000
    20  H    3.924302   2.283343   2.934160   2.887049   0.000000
    21  H    3.422424   4.606470   3.614584   4.529077   3.689790
    22  H    6.823565   6.818645   5.604331   8.018949   5.836480
    23  H    6.811382   5.683797   4.916712   7.455615   4.773012
    24  H    5.269881   3.441413   3.290102   5.290456   2.511578
    25  C    4.120633   4.222842   4.505309   2.674158   2.565984
    26  H    5.422794   6.330063   5.037353   6.815490   5.359580
    27  H    7.040006   8.404042   7.142355   8.385092   7.298881
    28  H    6.516618   8.107037   6.628060   8.396672   7.422276
    29  H    9.288243  10.504837   9.399176  10.220518   9.077107
    30  H    8.567944  10.060008   9.036324   9.405357   8.663367
    31  O    7.042595   8.944660   7.321160   9.368335   8.649507
    32  H    7.877734   9.676102   8.011743  10.252649   9.412628
    33  H    7.029942   9.199689   7.597491   9.439955   9.011144
    34  H    4.393790   5.039137   5.262189   2.964148   3.618362
    35  H    4.751890   4.755624   4.817303   3.707393   2.797319
    36  H    4.697945   4.174216   4.862023   2.536329   2.434647
                   21         22         23         24         25
    21  H    0.000000
    22  H    4.149041   0.000000
    23  H    4.922290   2.531072   0.000000
    24  H    4.301559   4.319503   2.500419   0.000000
    25  C    3.142388   6.437896   6.267949   4.626826   0.000000
    26  H    2.357763   2.331663   4.204034   4.871269   5.169025
    27  H    3.947366   3.871553   6.159643   7.037848   6.469133
    28  H    3.944499   3.879162   6.170259   7.046915   6.905238
    29  H    6.045284   5.443987   7.695900   8.799971   7.959300
    30  H    5.492996   5.998214   8.120377   8.808365   7.199827
    31  O    5.188315   5.163694   7.373392   8.254159   8.247203
    32  H    6.038754   5.463682   7.726185   8.825587   9.123937
    33  H    5.485769   6.015827   8.148811   8.833744   8.458673
    34  H    3.518732   7.119849   7.218047   5.692322   1.096470
    35  H    2.889846   5.681626   5.637827   4.333811   1.098651
    36  H    4.139843   7.116584   6.590327   4.693619   1.107606
                   26         27         28         29         30
    26  H    0.000000
    27  H    2.268791   0.000000
    28  H    2.269191   1.580675   0.000000
    29  H    4.472056   2.453495   3.813754   0.000000
    30  H    4.468273   2.461512   3.808939   1.532509   0.000000
    31  O    3.825217   3.246148   1.784882   5.099965   5.077478
    32  H    4.473100   3.813346   2.453219   5.392765   5.582569
    33  H    4.469120   3.807846   2.461246   5.581993   5.342949
    34  H    5.579192   6.558168   7.049257   7.928272   6.987435
    35  H    4.534995   5.771201   6.377456   7.114219   6.474129
    36  H    6.095184   7.478084   7.940213   8.883896   8.171046
                   31         32         33         34         35
    31  O    0.000000
    32  H    0.960915   0.000000
    33  H    0.960849   1.532515   0.000000
    34  H    8.340958   9.254612   8.450057   0.000000
    35  H    7.866305   8.702812   8.173650   1.775033   0.000000
    36  H    9.297882  10.160271   9.531477   1.787726   1.786362
                   36
    36  H    0.000000
 Stoichiometry    C10H21N2O3(1+)
 Framework group  C1[X(C10H21N2O3)]
 Deg. of freedom   102
 Full point group                 C1      NOp   1
 Largest Abelian subgroup         C1      NOp   1
 Largest concise Abelian subgroup C1      NOp   1
                         Standard orientation:                         
 ---------------------------------------------------------------------
 Center     Atomic      Atomic             Coordinates (Angstroms)
 Number     Number       Type             X           Y           Z
 ---------------------------------------------------------------------
      1          6           0       -1.126285    2.399308   -0.198456
      2          6           0       -1.187296    1.002980   -0.156621
      3          6           0        0.015028    0.314299   -0.074314
      4          7           0        1.182016    0.973853   -0.028873
      5          6           0        1.258340    2.312054   -0.059315
      6          6           0        0.098666    3.061785   -0.145832
      7          6           0       -2.506384    0.260162   -0.157630
      8          7           0       -2.342166   -1.123130   -0.585680
      9          6           0       -3.351501   -1.912474    0.115077
     10          6           0       -3.321341   -1.327022    1.520225
     11          6           0       -3.150407    0.179890    1.259056
     12          8           0        3.438832   -0.350950    0.116407
     13          8           0        4.792813   -1.207978   -2.126424
     14          1           0       -3.093681   -2.977769    0.075520
     15          1           0       -4.226235   -1.551034    2.094488
     16          1           0       -2.460018   -1.726061    2.070384
     17          1           0       -4.121632    0.687412    1.246468
     18          1           0       -2.535279    0.670220    2.022093
     19          1           0       -4.354588   -1.785840   -0.339951
     20          1           0       -3.190148    0.809229   -0.834674
     21          1           0        0.050193   -0.772325   -0.051459
     22          1           0        2.256238    2.741470   -0.017470
     23          1           0        0.157444    4.147207   -0.176512
     24          1           0       -2.049256    2.975471   -0.274507
     25          6           0       -2.337275   -1.297313   -2.026044
     26          1           0        2.084590    0.416623    0.030253
     27          1           0        3.952092   -0.682402   -0.642052
     28          1           0        3.867290   -0.656039    0.936126
     29          1           0        5.594366   -0.797166   -2.461228
     30          1           0        4.803522   -2.109849   -2.457680
     31          8           0        4.543202   -1.132165    2.517976
     32          1           0        5.305174   -0.709483    2.923063
     33          1           0        4.517189   -2.023085    2.876886
     34          1           0       -2.177082   -2.354453   -2.269024
     35          1           0       -1.519405   -0.718965   -2.477304
     36          1           0       -3.287766   -0.971489   -2.492087
 ---------------------------------------------------------------------
 Rotational constants (GHZ):           0.6065467           0.2345844           0.2189674
 Standard basis: Aug-CC-pVDZ (5D, 7F)
 There are   564 symmetry adapted cartesian basis functions of A   symmetry.
 There are   534 symmetry adapted basis functions of A   symmetry.
   534 basis functions,   876 primitive gaussians,   564 cartesian basis functions
    59 alpha electrons       59 beta electrons
       nuclear repulsion energy      1022.6152926496 Hartrees.
 NAtoms=   36 NActive=   36 NUniq=   36 SFac= 1.00D+00 NAtFMM=   60 NAOKFM=F Big=F
 Integral buffers will be    131072 words long.
 Raffenetti 2 integral format.
 Two-electron integral symmetry is turned on.
 Nuclear repulsion after empirical dispersion term =     1022.5925316335 Hartrees.
 One-electron integrals computed using PRISM.
 NBasis=   534 RedAO= T EigKep=  2.44D-06  NBF=   534
 NBsUse=   534 1.00D-06 EigRej= -1.00D+00 NBFU=   534
 ExpMin= 2.97D-02 ExpMax= 1.17D+04 ExpMxC= 4.01D+02 IAcc=3 IRadAn=         5 AccDes= 0.00D+00
 Harris functional with IExCor= 4639 and IRadAn=       5 diagonalized for initial guess.
 HarFok:  IExCor= 4639 AccDes= 0.00D+00 IRadAn=         5 IDoV= 1 UseB2=F ITyADJ=14
 ICtDFT=  3500011 ScaDFX=  1.000000  1.000000  1.000000  1.000000
 FoFCou: FMM=F IPFlag=           0 FMFlag=      100000 FMFlg1=           0
         NFxFlg=           0 DoJE=T BraDBF=F KetDBF=T FulRan=T
         wScrn=  0.000000 ICntrl=       500 IOpCl=  0 I1Cent=   200000004 NGrid=           0
         NMat0=    1 NMatS0=      1 NMatT0=    0 NMatD0=    1 NMtDS0=    0 NMtDT0=    0
 Petite list used in FoFCou.
 Requested convergence on RMS density matrix=1.00D-08 within 128 cycles.
 Requested convergence on MAX density matrix=1.00D-06.
 Requested convergence on             energy=1.00D-06.
 No special actions if energy rises.
 SCF Done:  E(RwB97XD) =  -728.587848840     A.U. after   14 cycles
            NFock= 14  Conv=0.62D-08     -V/T= 2.0063

 **********************************************************************

            Population analysis using the SCF density.

 **********************************************************************

 Orbital symmetries:
       Occupied  (A) (A) (A) (A) (A) (A) (A) (A) (A) (A) (A) (A)
                 (A) (A) (A) (A) (A) (A) (A) (A) (A) (A) (A) (A)
                 (A) (A) (A) (A) (A) (A) (A) (A) (A) (A) (A) (A)
                 (A) (A) (A) (A) (A) (A) (A) (A) (A) (A) (A) (A)
                 (A) (A) (A) (A) (A) (A) (A) (A) (A) (A) (A)
       Virtual   (A) (A) (A) (A) (A) (A) (A) (A) (A) (A) (A) (A)
                 (A) (A) (A) (A) (A) (A) (A) (A) (A) (A) (A) (A)
                 (A) (A) (A) (A) (A) (A) (A) (A) (A) (A) (A) (A)
                 (A) (A) (A) (A) (A) (A) (A) (A) (A) (A) (A) (A)
                 (A) (A) (A) (A) (A) (A) (A) (A) (A) (A) (A) (A)
                 (A) (A) (A) (A) (A) (A) (A) (A) (A) (A) (A) (A)
                 (A) (A) (A) (A) (A) (A) (A) (A) (A) (A) (A) (A)
                 (A) (A) (A) (A) (A) (A) (A) (A) (A) (A) (A) (A)
                 (A) (A) (A) (A) (A) (A) (A) (A) (A) (A) (A) (A)
                 (A) (A) (A) (A) (A) (A) (A) (A) (A) (A) (A) (A)
                 (A) (A) (A) (A) (A) (A) (A) (A) (A) (A) (A) (A)
                 (A) (A) (A) (A) (A) (A) (A) (A) (A) (A) (A) (A)
                 (A) (A) (A) (A) (A) (A) (A) (A) (A) (A) (A) (A)
                 (A) (A) (A) (A) (A) (A) (A) (A) (A) (A) (A) (A)
                 (A) (A) (A) (A) (A) (A) (A) (A) (A) (A) (A) (A)
                 (A) (A) (A) (A) (A) (A) (A) (A) (A) (A) (A) (A)
                 (A) (A) (A) (A) (A) (A) (A) (A) (A) (A) (A) (A)
                 (A) (A) (A) (A) (A) (A) (A) (A) (A) (A) (A) (A)
                 (A) (A) (A) (A) (A) (A) (A) (A) (A) (A) (A) (A)
                 (A) (A) (A) (A) (A) (A) (A) (A) (A) (A) (A) (A)
                 (A) (A) (A) (A) (A) (A) (A) (A) (A) (A) (A) (A)
                 (A) (A) (A) (A) (A) (A) (A) (A) (A) (A) (A) (A)
                 (A) (A) (A) (A) (A) (A) (A) (A) (A) (A) (A) (A)
                 (A) (A) (A) (A) (A) (A) (A) (A) (A) (A) (A) (A)
                 (A) (A) (A) (A) (A) (A) (A) (A) (A) (A) (A) (A)
                 (A) (A) (A) (A) (A) (A) (A) (A) (A) (A) (A) (A)
                 (A) (A) (A) (A) (A) (A) (A) (A) (A) (A) (A) (A)
                 (A) (A) (A) (A) (A) (A) (A) (A) (A) (A) (A) (A)
                 (A) (A) (A) (A) (A) (A) (A) (A) (A) (A) (A) (A)
                 (A) (A) (A) (A) (A) (A) (A) (A) (A) (A) (A) (A)
                 (A) (A) (A) (A) (A) (A) (A) (A) (A) (A) (A) (A)
                 (A) (A) (A) (A) (A) (A) (A) (A) (A) (A) (A) (A)
                 (A) (A) (A) (A) (A) (A) (A) (A) (A) (A) (A) (A)
                 (A) (A) (A) (A) (A) (A) (A) (A) (A) (A) (A) (A)
                 (A) (A) (A) (A) (A) (A) (A) (A) (A) (A) (A) (A)
                 (A) (A) (A) (A) (A) (A) (A) (A) (A) (A) (A) (A)
                 (A) (A) (A) (A) (A) (A) (A) (A) (A) (A) (A) (A)
                 (A) (A) (A) (A) (A) (A) (A) (A) (A) (A) (A) (A)
                 (A) (A) (A) (A) (A) (A) (A) (A) (A) (A) (A) (A)
                 (A) (A) (A) (A) (A) (A) (A)
 The electronic state is 1-A.
 Alpha  occ. eigenvalues --  -19.40370 -19.40366 -19.37660 -14.66265 -14.54714
 Alpha  occ. eigenvalues --  -10.49938 -10.49215 -10.46658 -10.45918 -10.45866
 Alpha  occ. eigenvalues --  -10.44650 -10.41171 -10.41146 -10.40123 -10.38908
 Alpha  occ. eigenvalues --   -1.24929  -1.24627  -1.24525  -1.21733  -1.15125
 Alpha  occ. eigenvalues --   -1.07048  -1.03339  -0.98810  -0.94409  -0.89417
 Alpha  occ. eigenvalues --   -0.88113  -0.86922  -0.81284  -0.78136  -0.77207
 Alpha  occ. eigenvalues --   -0.75081  -0.75071  -0.74338  -0.73293  -0.72585
 Alpha  occ. eigenvalues --   -0.69683  -0.68426  -0.67889  -0.66495  -0.63907
 Alpha  occ. eigenvalues --   -0.63349  -0.63181  -0.61748  -0.60326  -0.60301
 Alpha  occ. eigenvalues --   -0.60104  -0.57289  -0.56233  -0.55735  -0.54790
 Alpha  occ. eigenvalues --   -0.53931  -0.53337  -0.53114  -0.52032  -0.51850
 Alpha  occ. eigenvalues --   -0.51826  -0.50697  -0.47884  -0.40702
 Alpha virt. eigenvalues --   -0.12974  -0.09523  -0.06617  -0.05041  -0.04869
 Alpha virt. eigenvalues --   -0.04152  -0.03358  -0.03066  -0.02791  -0.02231
 Alpha virt. eigenvalues --   -0.01543  -0.01224  -0.01176  -0.00737  -0.00262
 Alpha virt. eigenvalues --    0.00200   0.00445   0.00791   0.01211   0.01719
 Alpha virt. eigenvalues --    0.02234   0.02701   0.02832   0.03294   0.03602
 Alpha virt. eigenvalues --    0.03932   0.04536   0.04666   0.04812   0.05096
 Alpha virt. eigenvalues --    0.05716   0.05794   0.06108   0.06347   0.06620
 Alpha virt. eigenvalues --    0.06829   0.07181   0.07393   0.07814   0.08359
 Alpha virt. eigenvalues --    0.08519   0.08843   0.09011   0.09210   0.09539
 Alpha virt. eigenvalues --    0.10104   0.10326   0.10733   0.11017   0.11293
 Alpha virt. eigenvalues --    0.11689   0.11839   0.11942   0.12440   0.12736
 Alpha virt. eigenvalues --    0.12953   0.13148   0.13317   0.13544   0.13815
 Alpha virt. eigenvalues --    0.14154   0.14565   0.14870   0.15411   0.15761
 Alpha virt. eigenvalues --    0.15864   0.16019   0.16480   0.16878   0.17100
 Alpha virt. eigenvalues --    0.17128   0.17455   0.17625   0.18230   0.18430
 Alpha virt. eigenvalues --    0.18486   0.19040   0.19588   0.19724   0.20045
 Alpha virt. eigenvalues --    0.20495   0.21165   0.21385   0.21868   0.22284
 Alpha virt. eigenvalues --    0.22492   0.22576   0.22936   0.23509   0.23547
 Alpha virt. eigenvalues --    0.24119   0.24542   0.24962   0.25118   0.25391
 Alpha virt. eigenvalues --    0.25869   0.25987   0.26395   0.26460   0.27210
 Alpha virt. eigenvalues --    0.27777   0.28140   0.28406   0.28762   0.29143
 Alpha virt. eigenvalues --    0.29501   0.29692   0.29869   0.30168   0.30650
 Alpha virt. eigenvalues --    0.31403   0.31832   0.32039   0.32350   0.33264
 Alpha virt. eigenvalues --    0.33602   0.33974   0.34222   0.34800   0.35192
 Alpha virt. eigenvalues --    0.35660   0.36316   0.36503   0.36850   0.37133
 Alpha virt. eigenvalues --    0.37730   0.38384   0.39000   0.39358   0.39493
 Alpha virt. eigenvalues --    0.39664   0.39983   0.40976   0.41287   0.41675
 Alpha virt. eigenvalues --    0.41816   0.42543   0.43057   0.43511   0.43750
 Alpha virt. eigenvalues --    0.43946   0.44392   0.44626   0.44899   0.45078
 Alpha virt. eigenvalues --    0.45177   0.45832   0.46378   0.46402   0.46714
 Alpha virt. eigenvalues --    0.47535   0.48184   0.48363   0.49551   0.49733
 Alpha virt. eigenvalues --    0.50114   0.50554   0.50636   0.50964   0.51136
 Alpha virt. eigenvalues --    0.51362   0.51660   0.52020   0.52224   0.52659
 Alpha virt. eigenvalues --    0.52954   0.53586   0.53852   0.54424   0.54699
 Alpha virt. eigenvalues --    0.55448   0.55952   0.56147   0.56975   0.57294
 Alpha virt. eigenvalues --    0.57593   0.57912   0.58391   0.58475   0.58948
 Alpha virt. eigenvalues --    0.59423   0.59760   0.60404   0.60848   0.61145
 Alpha virt. eigenvalues --    0.62391   0.62598   0.63147   0.63378   0.64070
 Alpha virt. eigenvalues --    0.64358   0.65089   0.65446   0.65743   0.65943
 Alpha virt. eigenvalues --    0.66851   0.67450   0.67914   0.68468   0.68973
 Alpha virt. eigenvalues --    0.69230   0.69818   0.70075   0.70311   0.70826
 Alpha virt. eigenvalues --    0.71238   0.71868   0.72264   0.72598   0.72807
 Alpha virt. eigenvalues --    0.73516   0.74338   0.74908   0.75539   0.75701
 Alpha virt. eigenvalues --    0.76135   0.76655   0.77324   0.78234   0.79060
 Alpha virt. eigenvalues --    0.79326   0.79773   0.80564   0.80729   0.80933
 Alpha virt. eigenvalues --    0.81259   0.82083   0.82409   0.82905   0.83759
 Alpha virt. eigenvalues --    0.85383   0.86100   0.86448   0.86757   0.87733
 Alpha virt. eigenvalues --    0.88109   0.88868   0.89722   0.90178   0.91161
 Alpha virt. eigenvalues --    0.91809   0.92651   0.93221   0.94230   0.95166
 Alpha virt. eigenvalues --    0.95954   0.96859   0.97800   0.98628   0.99109
 Alpha virt. eigenvalues --    1.00365   1.00598   1.01863   1.02326   1.03586
 Alpha virt. eigenvalues --    1.03727   1.04322   1.05437   1.05927   1.06138
 Alpha virt. eigenvalues --    1.06771   1.08264   1.08514   1.08990   1.10069
 Alpha virt. eigenvalues --    1.10977   1.11706   1.13262   1.15112   1.15259
 Alpha virt. eigenvalues --    1.15754   1.17172   1.17548   1.18705   1.19573
 Alpha virt. eigenvalues --    1.20430   1.20980   1.22034   1.23360   1.24463
 Alpha virt. eigenvalues --    1.26548   1.27466   1.27714   1.29418   1.30852
 Alpha virt. eigenvalues --    1.31252   1.32230   1.32659   1.34062   1.34939
 Alpha virt. eigenvalues --    1.35520   1.35937   1.36400   1.37383   1.37807
 Alpha virt. eigenvalues --    1.38247   1.39796   1.40818   1.41801   1.42172
 Alpha virt. eigenvalues --    1.43281   1.44611   1.46241   1.46643   1.47876
 Alpha virt. eigenvalues --    1.49293   1.50734   1.51639   1.51673   1.53200
 Alpha virt. eigenvalues --    1.53955   1.54987   1.57271   1.57922   1.58459
 Alpha virt. eigenvalues --    1.59358   1.60978   1.62107   1.62756   1.63077
 Alpha virt. eigenvalues --    1.64384   1.64696   1.65347   1.66604   1.67805
 Alpha virt. eigenvalues --    1.68505   1.68713   1.69286   1.69791   1.71345
 Alpha virt. eigenvalues --    1.71702   1.72543   1.72709   1.73565   1.73738
 Alpha virt. eigenvalues --    1.75516   1.76162   1.76955   1.78478   1.78754
 Alpha virt. eigenvalues --    1.79381   1.80902   1.81504   1.83557   1.83775
 Alpha virt. eigenvalues --    1.84295   1.86690   1.86742   1.87042   1.87545
 Alpha virt. eigenvalues --    1.88705   1.89394   1.89826   1.90474   1.91016
 Alpha virt. eigenvalues --    1.91841   1.92493   1.93783   1.94163   1.95490
 Alpha virt. eigenvalues --    1.95701   1.97510   1.97649   1.98146   1.98331
 Alpha virt. eigenvalues --    1.99728   2.01058   2.02788   2.03967   2.06100
 Alpha virt. eigenvalues --    2.06700   2.08290   2.08685   2.09765   2.09858
 Alpha virt. eigenvalues --    2.10674   2.11974   2.12375   2.12735   2.14466
 Alpha virt. eigenvalues --    2.14502   2.14895   2.16524   2.17068   2.17913
 Alpha virt. eigenvalues --    2.19574   2.20215   2.20702   2.21153   2.23155
 Alpha virt. eigenvalues --    2.24236   2.25211   2.26849   2.28054   2.29347
 Alpha virt. eigenvalues --    2.29800   2.30399   2.30859   2.32089   2.34284
 Alpha virt. eigenvalues --    2.35495   2.36268   2.36949   2.38245   2.41256
 Alpha virt. eigenvalues --    2.42308   2.43554   2.44085   2.45056   2.47789
 Alpha virt. eigenvalues --    2.48986   2.49321   2.49579   2.50941   2.52436
 Alpha virt. eigenvalues --    2.53385   2.54688   2.55906   2.57217   2.57712
 Alpha virt. eigenvalues --    2.58439   2.60905   2.61365   2.62573   2.64027
 Alpha virt. eigenvalues --    2.64977   2.66176   2.67394   2.69000   2.70656
 Alpha virt. eigenvalues --    2.71389   2.73897   2.75196   2.76956   2.77647
 Alpha virt. eigenvalues --    2.78361   2.79283   2.80432   2.80954   2.82707
 Alpha virt. eigenvalues --    2.84785   2.85166   2.85641   2.87781   2.89975
 Alpha virt. eigenvalues --    2.91142   2.97707   3.02890   3.04365   3.11243
 Alpha virt. eigenvalues --    3.15401   3.17419   3.21196   3.24787   3.28470
 Alpha virt. eigenvalues --    3.28948   3.35731   3.37644   3.39032   3.44303
 Alpha virt. eigenvalues --    3.45719   3.46295   3.47714   3.52548   3.56841
 Alpha virt. eigenvalues --    3.65406   3.66782   3.67928   3.73774   3.89949
 Alpha virt. eigenvalues --    3.90187   3.97379   4.07489   4.21069   4.59731
          Condensed to atoms (all electrons):
               1          2          3          4          5          6
     1  C   21.764107  -9.781655  -2.037037   0.192968   1.589820  -4.199974
     2  C   -9.781655  20.515304  -2.826219  -0.132746  -1.912710   1.837806
     3  C   -2.037037  -2.826219  15.948147  -1.583131  -0.644811  -0.901921
     4  N    0.192968  -0.132746  -1.583131   7.853298   0.434034   0.008580
     5  C    1.589820  -1.912710  -0.644811   0.434034  10.053498  -2.769698
     6  C   -4.199974   1.837806  -0.901921   0.008580  -2.769698  12.055465
     7  C   -0.115405  -4.422123  -3.083423   0.718305  -0.187410  -0.519088
     8  N   -0.302085   0.817982   0.930284  -0.161657  -0.022984  -0.000695
     9  C    0.088605  -0.217369  -0.314985   0.061947  -0.001728  -0.015169
    10  C   -0.230949   0.449536   0.063133  -0.065779  -0.024817   0.064505
    11  C   -0.466064   0.390033  -0.399818   0.058016  -0.233055   0.348098
    12  O    0.059899  -0.128061   0.048426  -0.190515   0.068287  -0.071334
    13  O   -0.000487   0.003071  -0.004933   0.000753   0.006719   0.001347
    14  H    0.009676  -0.209103  -0.060151   0.011417  -0.000507  -0.000970
    15  H    0.001063  -0.051017  -0.005632  -0.003858  -0.005301   0.008599
    16  H   -0.018122   0.145178   0.090455  -0.008076   0.011312  -0.007511
    17  H   -0.067192   0.222620   0.099867  -0.010884   0.014207  -0.016208
    18  H    0.158909  -0.534937  -0.145283   0.035650  -0.025388   0.033260
    19  H   -0.009711   0.215626   0.021901  -0.001293   0.002020   0.001700
    20  H   -0.053538   0.581128  -0.054289   0.004775  -0.039717   0.074231
    21  H   -0.119673  -0.260115  -0.920834  -0.001270  -0.134476   0.089529
    22  H    0.038309   0.133157   0.199529  -0.063665  -0.927600   0.340335
    23  H    0.725541  -0.235433  -0.000002  -0.041213   0.455227  -1.161152
    24  H   -2.245243   1.082375   0.260122  -0.090957  -0.194818   0.800244
    25  C   -0.077591  -0.056734   0.157938  -0.017322  -0.011192  -0.033261
    26  H    0.072070  -0.576851   0.475243  -0.011174  -0.262634  -0.264180
    27  H    0.000896   0.004432   0.003976   0.003189  -0.004915   0.008523
    28  H    0.001491   0.004840   0.002094   0.000889  -0.002941   0.007226
    29  H   -0.000217   0.000299   0.001027   0.000067  -0.001507  -0.000029
    30  H   -0.000200   0.000525  -0.002171   0.000535   0.000192   0.000287
    31  O   -0.000463   0.002646  -0.004400  -0.000058   0.006277   0.001850
    32  H   -0.000145   0.000390   0.000685   0.000195  -0.001378  -0.000137
    33  H   -0.000294   0.000396  -0.002035   0.000429  -0.000101   0.000468
    34  H    0.029833  -0.011427  -0.037804   0.010233   0.007246  -0.008962
    35  H   -0.176676   0.178384  -0.087867  -0.002681  -0.046268   0.049695
    36  H    0.049371   0.020856   0.081944  -0.007603   0.006042  -0.004284
               7          8          9         10         11         12
     1  C   -0.115405  -0.302085   0.088605  -0.230949  -0.466064   0.059899
     2  C   -4.422123   0.817982  -0.217369   0.449536   0.390033  -0.128061
     3  C   -3.083423   0.930284  -0.314985   0.063133  -0.399818   0.048426
     4  N    0.718305  -0.161657   0.061947  -0.065779   0.058016  -0.190515
     5  C   -0.187410  -0.022984  -0.001728  -0.024817  -0.233055   0.068287
     6  C   -0.519088  -0.000695  -0.015169   0.064505   0.348098  -0.071334
     7  C   17.889727  -2.558675   0.043946  -0.917802  -0.195622   0.000819
     8  N   -2.558675   9.386306   0.020903   0.080643  -0.428346   0.003018
     9  C    0.043946   0.020903   5.530486   0.238407   0.000702   0.000344
    10  C   -0.917802   0.080643   0.238407   5.642869  -0.022406  -0.000653
    11  C   -0.195622  -0.428346   0.000702  -0.022406   6.136968  -0.001750
    12  O    0.000819   0.003018   0.000344  -0.000653  -0.001750   8.031837
    13  O    0.000426   0.000058   0.000014  -0.000009   0.000040  -0.039628
    14  H    0.490398  -0.662616   0.019038  -0.058425   0.089216   0.000018
    15  H    0.057995  -0.009386   0.073597  -0.237643   0.267509  -0.000004
    16  H   -0.127976   0.078763  -0.080783  -0.089318  -0.041213  -0.000214
    17  H    0.332922   0.133414  -0.196244   0.119660  -0.719701  -0.000078
    18  H   -0.088596   0.030176   0.165610   0.177837  -0.073928   0.000250
    19  H   -0.375389   0.404036  -0.322044   0.030957  -0.070221  -0.000039
    20  H   -1.590248  -0.198349  -0.056354   0.102767   0.367576   0.000207
    21  H    0.627423  -0.387435   0.018647   0.037452   0.037872  -0.006378
    22  H    0.013868   0.003022  -0.000636  -0.000047   0.006283  -0.000251
    23  H    0.000583  -0.002272  -0.000831   0.000120  -0.014875  -0.001675
    24  H   -0.477792   0.050947  -0.017833   0.022469   0.061915   0.001187
    25  C   -0.315442   0.456018  -0.223601  -0.013397  -0.008659  -0.000752
    26  H   -0.140121   0.019583   0.002364   0.007344  -0.048929   0.036670
    27  H    0.001968   0.000628   0.000172   0.000059   0.000651   0.338072
    28  H    0.001622  -0.000362  -0.000303   0.000027   0.000261   0.341007
    29  H   -0.000023   0.000005  -0.000008  -0.000004   0.000004   0.001930
    30  H    0.000140  -0.000093   0.000005   0.000003   0.000003   0.001674
    31  O    0.000652  -0.000056   0.000003  -0.000020   0.000082  -0.040412
    32  H    0.000038  -0.000007  -0.000006  -0.000002   0.000005   0.001908
    33  H    0.000052  -0.000021   0.000041  -0.000006   0.000058   0.001726
    34  H   -0.023453  -0.327031   0.079227   0.006971  -0.004094  -0.000227
    35  H    0.128611  -0.096993  -0.123963  -0.035427   0.075042   0.000295
    36  H   -0.123276   0.156341   0.043970   0.052242  -0.058921   0.000036
              13         14         15         16         17         18
     1  C   -0.000487   0.009676   0.001063  -0.018122  -0.067192   0.158909
     2  C    0.003071  -0.209103  -0.051017   0.145178   0.222620  -0.534937
     3  C   -0.004933  -0.060151  -0.005632   0.090455   0.099867  -0.145283
     4  N    0.000753   0.011417  -0.003858  -0.008076  -0.010884   0.035650
     5  C    0.006719  -0.000507  -0.005301   0.011312   0.014207  -0.025388
     6  C    0.001347  -0.000970   0.008599  -0.007511  -0.016208   0.033260
     7  C    0.000426   0.490398   0.057995  -0.127976   0.332922  -0.088596
     8  N    0.000058  -0.662616  -0.009386   0.078763   0.133414   0.030176
     9  C    0.000014   0.019038   0.073597  -0.080783  -0.196244   0.165610
    10  C   -0.000009  -0.058425  -0.237643  -0.089318   0.119660   0.177837
    11  C    0.000040   0.089216   0.267509  -0.041213  -0.719701  -0.073928
    12  O   -0.039628   0.000018  -0.000004  -0.000214  -0.000078   0.000250
    13  O    7.678117   0.000015  -0.000001  -0.000018   0.000001   0.000019
    14  H    0.000015   2.417282   0.018428  -0.212261  -0.020095   0.015104
    15  H   -0.000001   0.018428   1.821458  -0.394875  -0.229478   0.057627
    16  H   -0.000018  -0.212261  -0.394875   2.042447   0.163325  -0.261416
    17  H    0.000001  -0.020095  -0.229478   0.163325   2.177420  -0.443611
    18  H    0.000019   0.015104   0.057627  -0.261416  -0.443611   2.254246
    19  H    0.000000  -0.390148  -0.149165   0.148974   0.065063  -0.020879
    20  H   -0.000004   0.035609   0.027759  -0.038570  -0.252635   0.097470
    21  H    0.001156   0.014865   0.010112  -0.019197  -0.009791   0.013689
    22  H    0.001546  -0.000063  -0.000109   0.000206   0.000964   0.000318
    23  H    0.000004  -0.000061   0.000053   0.000169  -0.001237  -0.002319
    24  H   -0.000028  -0.002245   0.001816   0.002308  -0.002384  -0.007439
    25  C   -0.000007  -0.016533   0.008711  -0.012480  -0.000834   0.007479
    26  H   -0.012594  -0.004137   0.000225   0.004232   0.001561  -0.003668
    27  H   -0.008913   0.000107   0.000011  -0.000086  -0.000014   0.000072
    28  H    0.003603   0.000064   0.000023  -0.000232  -0.000024   0.000297
    29  H    0.353866   0.000000  -0.000000  -0.000000   0.000000  -0.000001
    30  H    0.351554   0.000004  -0.000000  -0.000002   0.000000   0.000002
    31  O   -0.001190   0.000012  -0.000002  -0.000033   0.000001   0.000127
    32  H    0.000021   0.000000  -0.000000   0.000010   0.000000  -0.000012
    33  H   -0.000010   0.000005  -0.000001  -0.000005  -0.000000   0.000011
    34  H   -0.000047   0.019588  -0.003931   0.006570   0.000725   0.000850
    35  H    0.000306  -0.005343  -0.001145  -0.003220  -0.001316   0.001511
    36  H    0.000000   0.017159   0.006965  -0.003157   0.000549  -0.000023
              19         20         21         22         23         24
     1  C   -0.009711  -0.053538  -0.119673   0.038309   0.725541  -2.245243
     2  C    0.215626   0.581128  -0.260115   0.133157  -0.235433   1.082375
     3  C    0.021901  -0.054289  -0.920834   0.199529  -0.000002   0.260122
     4  N   -0.001293   0.004775  -0.001270  -0.063665  -0.041213  -0.090957
     5  C    0.002020  -0.039717  -0.134476  -0.927600   0.455227  -0.194818
     6  C    0.001700   0.074231   0.089529   0.340335  -1.161152   0.800244
     7  C   -0.375389  -1.590248   0.627423   0.013868   0.000583  -0.477792
     8  N    0.404036  -0.198349  -0.387435   0.003022  -0.002272   0.050947
     9  C   -0.322044  -0.056354   0.018647  -0.000636  -0.000831  -0.017833
    10  C    0.030957   0.102767   0.037452  -0.000047   0.000120   0.022469
    11  C   -0.070221   0.367576   0.037872   0.006283  -0.014875   0.061915
    12  O   -0.000039   0.000207  -0.006378  -0.000251  -0.001675   0.001187
    13  O    0.000000  -0.000004   0.001156   0.001546   0.000004  -0.000028
    14  H   -0.390148   0.035609   0.014865  -0.000063  -0.000061  -0.002245
    15  H   -0.149165   0.027759   0.010112  -0.000109   0.000053   0.001816
    16  H    0.148974  -0.038570  -0.019197   0.000206   0.000169   0.002308
    17  H    0.065063  -0.252635  -0.009791   0.000964  -0.001237  -0.002384
    18  H   -0.020879   0.097470   0.013689   0.000318  -0.002319  -0.007439
    19  H    1.946320  -0.054332   0.003506   0.000091   0.000008   0.000528
    20  H   -0.054332   2.494101   0.043309  -0.000254   0.000221  -0.042397
    21  H    0.003506   0.043309   3.067860   0.011938  -0.000843  -0.021680
    22  H    0.000091  -0.000254   0.011938   2.218471  -0.119208  -0.014097
    23  H    0.000008   0.000221  -0.000843  -0.119208   2.086868  -0.133787
    24  H    0.000528  -0.042397  -0.021680  -0.014097  -0.133787   2.814645
    25  C   -0.002096   0.090400  -0.071359  -0.000063   0.002622   0.004848
    26  H    0.000113  -0.007536  -0.038747  -0.180598   0.004841   0.017004
    27  H   -0.000017   0.000023   0.003489   0.005742   0.000033  -0.000010
    28  H   -0.000009   0.000119   0.000901   0.005549   0.000021  -0.000233
    29  H    0.000000  -0.000003   0.000175  -0.000086   0.000010  -0.000005
    30  H    0.000000  -0.000002  -0.000521  -0.000079   0.000000  -0.000005
    31  O   -0.000000   0.000037   0.001451   0.001308   0.000030  -0.000039
    32  H   -0.000000   0.000002   0.000038  -0.000151   0.000009  -0.000005
    33  H   -0.000001   0.000001  -0.000195  -0.000023   0.000004  -0.000005
    34  H   -0.004767   0.014288  -0.002591  -0.000065   0.000075   0.001448
    35  H   -0.001589   0.020780   0.011040   0.000917   0.000485  -0.004581
    36  H    0.010379   0.003052   0.000484   0.000001  -0.000070   0.002883
              25         26         27         28         29         30
     1  C   -0.077591   0.072070   0.000896   0.001491  -0.000217  -0.000200
     2  C   -0.056734  -0.576851   0.004432   0.004840   0.000299   0.000525
     3  C    0.157938   0.475243   0.003976   0.002094   0.001027  -0.002171
     4  N   -0.017322  -0.011174   0.003189   0.000889   0.000067   0.000535
     5  C   -0.011192  -0.262634  -0.004915  -0.002941  -0.001507   0.000192
     6  C   -0.033261  -0.264180   0.008523   0.007226  -0.000029   0.000287
     7  C   -0.315442  -0.140121   0.001968   0.001622  -0.000023   0.000140
     8  N    0.456018   0.019583   0.000628  -0.000362   0.000005  -0.000093
     9  C   -0.223601   0.002364   0.000172  -0.000303  -0.000008   0.000005
    10  C   -0.013397   0.007344   0.000059   0.000027  -0.000004   0.000003
    11  C   -0.008659  -0.048929   0.000651   0.000261   0.000004   0.000003
    12  O   -0.000752   0.036670   0.338072   0.341007   0.001930   0.001674
    13  O   -0.000007  -0.012594  -0.008913   0.003603   0.353866   0.351554
    14  H   -0.016533  -0.004137   0.000107   0.000064   0.000000   0.000004
    15  H    0.008711   0.000225   0.000011   0.000023  -0.000000  -0.000000
    16  H   -0.012480   0.004232  -0.000086  -0.000232  -0.000000  -0.000002
    17  H   -0.000834   0.001561  -0.000014  -0.000024   0.000000   0.000000
    18  H    0.007479  -0.003668   0.000072   0.000297  -0.000001   0.000002
    19  H   -0.002096   0.000113  -0.000017  -0.000009   0.000000   0.000000
    20  H    0.090400  -0.007536   0.000023   0.000119  -0.000003  -0.000002
    21  H   -0.071359  -0.038747   0.003489   0.000901   0.000175  -0.000521
    22  H   -0.000063  -0.180598   0.005742   0.005549  -0.000086  -0.000079
    23  H    0.002622   0.004841   0.000033   0.000021   0.000010   0.000000
    24  H    0.004848   0.017004  -0.000010  -0.000233  -0.000005  -0.000005
    25  C    4.571886  -0.011202  -0.000144   0.000933   0.000006   0.000002
    26  H   -0.011202   1.872538  -0.035394  -0.030974   0.002669   0.004020
    27  H   -0.000144  -0.035394   0.625580  -0.162884  -0.001728  -0.000205
    28  H    0.000933  -0.030974  -0.162884   0.623167  -0.001991  -0.002768
    29  H    0.000006   0.002669  -0.001728  -0.001991   0.568883  -0.073982
    30  H    0.000002   0.004020  -0.000205  -0.002768  -0.073982   0.567975
    31  O   -0.000018  -0.011716   0.003215  -0.009448   0.000016   0.000003
    32  H   -0.000003   0.003030  -0.001896  -0.002037   0.000067   0.000007
    33  H   -0.000015   0.003817  -0.002658  -0.000486  -0.000001   0.000136
    34  H    0.371983   0.001280  -0.000275   0.000073  -0.000005   0.000030
    35  H    0.338050  -0.025537   0.000478   0.000483   0.000036  -0.000055
    36  H    0.061308   0.005508  -0.000019  -0.000030  -0.000001  -0.000003
              31         32         33         34         35         36
     1  C   -0.000463  -0.000145  -0.000294   0.029833  -0.176676   0.049371
     2  C    0.002646   0.000390   0.000396  -0.011427   0.178384   0.020856
     3  C   -0.004400   0.000685  -0.002035  -0.037804  -0.087867   0.081944
     4  N   -0.000058   0.000195   0.000429   0.010233  -0.002681  -0.007603
     5  C    0.006277  -0.001378  -0.000101   0.007246  -0.046268   0.006042
     6  C    0.001850  -0.000137   0.000468  -0.008962   0.049695  -0.004284
     7  C    0.000652   0.000038   0.000052  -0.023453   0.128611  -0.123276
     8  N   -0.000056  -0.000007  -0.000021  -0.327031  -0.096993   0.156341
     9  C    0.000003  -0.000006   0.000041   0.079227  -0.123963   0.043970
    10  C   -0.000020  -0.000002  -0.000006   0.006971  -0.035427   0.052242
    11  C    0.000082   0.000005   0.000058  -0.004094   0.075042  -0.058921
    12  O   -0.040412   0.001908   0.001726  -0.000227   0.000295   0.000036
    13  O   -0.001190   0.000021  -0.000010  -0.000047   0.000306   0.000000
    14  H    0.000012   0.000000   0.000005   0.019588  -0.005343   0.017159
    15  H   -0.000002  -0.000000  -0.000001  -0.003931  -0.001145   0.006965
    16  H   -0.000033   0.000010  -0.000005   0.006570  -0.003220  -0.003157
    17  H    0.000001   0.000000  -0.000000   0.000725  -0.001316   0.000549
    18  H    0.000127  -0.000012   0.000011   0.000850   0.001511  -0.000023
    19  H   -0.000000  -0.000000  -0.000001  -0.004767  -0.001589   0.010379
    20  H    0.000037   0.000002   0.000001   0.014288   0.020780   0.003052
    21  H    0.001451   0.000038  -0.000195  -0.002591   0.011040   0.000484
    22  H    0.001308  -0.000151  -0.000023  -0.000065   0.000917   0.000001
    23  H    0.000030   0.000009   0.000004   0.000075   0.000485  -0.000070
    24  H   -0.000039  -0.000005  -0.000005   0.001448  -0.004581   0.002883
    25  C   -0.000018  -0.000003  -0.000015   0.371983   0.338050   0.061308
    26  H   -0.011716   0.003030   0.003817   0.001280  -0.025537   0.005508
    27  H    0.003215  -0.001896  -0.002658  -0.000275   0.000478  -0.000019
    28  H   -0.009448  -0.002037  -0.000486   0.000073   0.000483  -0.000030
    29  H    0.000016   0.000067  -0.000001  -0.000005   0.000036  -0.000001
    30  H    0.000003   0.000007   0.000136   0.000030  -0.000055  -0.000003
    31  O    7.681226   0.353691   0.351388  -0.000003   0.000009  -0.000005
    32  H    0.353691   0.569322  -0.073914   0.000001  -0.000006  -0.000001
    33  H    0.351388  -0.073914   0.566923  -0.000007  -0.000002  -0.000000
    34  H   -0.000003   0.000001  -0.000007   1.895805  -0.497898  -0.308230
    35  H    0.000009  -0.000006  -0.000002  -0.497898   2.018179  -0.422820
    36  H   -0.000005  -0.000001  -0.000000  -0.308230  -0.422820   1.580347
 Mulliken charges:
               1
     1  C    1.120159
     2  C    0.749915
     3  C    0.731974
     4  N   -0.001400
     5  C    0.801078
     6  C    0.242826
     7  C    0.952368
     8  N   -0.413062
     9  C    1.183827
    10  C    0.599701
    11  C    0.947270
    12  O   -0.455641
    13  O   -0.334767
    14  H   -0.515349
    15  H   -0.270400
    16  H   -0.375184
    17  H   -0.360572
    18  H   -0.443015
    19  H   -0.449524
    20  H   -0.569629
    21  H   -0.999828
    22  H   -0.674561
    23  H   -0.561945
    24  H   -0.869158
    25  C    0.800522
    26  H    0.131882
    27  H    0.217842
    28  H    0.220028
    29  H    0.150531
    30  H    0.152992
    31  O   -0.336161
    32  H    0.150280
    33  H    0.154324
    34  H   -0.215411
    35  H   -0.290916
    36  H   -0.170996
 Sum of Mulliken charges =   1.00000
 Mulliken charges with hydrogens summed into heavy atoms:
               1
     1  C    0.251002
     2  C    0.749915
     3  C   -0.267854
     4  N    0.130482
     5  C    0.126517
     6  C   -0.319119
     7  C    0.382739
     8  N   -0.413062
     9  C    0.218954
    10  C   -0.045883
    11  C    0.143683
    12  O   -0.017771
    13  O   -0.031244
    25  C    0.123199
    31  O   -0.031557
 Electronic spatial extent (au):  <R**2>=           5520.4622
 Charge=              1.0000 electrons
 Dipole moment (field-independent basis, Debye):
    X=              6.9204    Y=              0.8666    Z=              0.1536  Tot=              6.9761
 Quadrupole moment (field-independent basis, Debye-Ang):
   XX=            -13.9558   YY=            -61.4695   ZZ=            -72.2347
   XY=            -12.6776   XZ=              1.4091   YZ=             -0.7882
 Traceless Quadrupole moment (field-independent basis, Debye-Ang):
   XX=             35.2642   YY=            -12.2495   ZZ=            -23.0147
   XY=            -12.6776   XZ=              1.4091   YZ=             -0.7882
 Octapole moment (field-independent basis, Debye-Ang**2):
  XXX=            361.4961  YYY=             15.3467  ZZZ=             15.3397  XYY=             57.4680
  XXY=            -86.2666  XXZ=             10.1556  XZZ=            114.4561  YZZ=            -46.0003
  YYZ=             -3.0059  XYZ=              0.0283
 Hexadecapole moment (field-independent basis, Debye-Ang**3):
 XXXX=          -2308.5679 YYYY=          -1081.1422 ZZZZ=           -791.1980 XXXY=           -445.4005
 XXXZ=            -28.1410 YYYX=           -136.0072 YYYZ=             -8.9128 ZZZX=             82.5508
 ZZZY=            -14.9562 XXYY=           -713.2475 XXZZ=           -297.3333 YYZZ=           -315.2803
 XXYZ=             -0.2241 YYXZ=              7.4837 ZZXY=           -172.4893
 N-N= 1.022592531633D+03 E-N=-3.729992023612D+03  KE= 7.240188958416D+02
 Calling FoFJK, ICntrl=      2127 FMM=F ISym2X=0 I1Cent= 0 IOpClX= 0 NMat=1 NMatS=1 NMatT=0.
 ***** Axes restored to original set *****
 -------------------------------------------------------------------
 Center     Atomic                   Forces (Hartrees/Bohr)
 Number     Number              X              Y              Z
 -------------------------------------------------------------------
      1        6          -0.000000625   -0.000000806   -0.000000474
      2        6           0.000000223    0.000000539    0.000001017
      3        6           0.000000629   -0.000000225   -0.000000070
      4        7           0.000002180    0.000001283   -0.000004750
      5        6          -0.000001085    0.000000420   -0.000000585
      6        6          -0.000000579    0.000000329   -0.000000856
      7        6          -0.000001552    0.000001252    0.000000221
      8        7           0.000000673   -0.000001387   -0.000001721
      9        6           0.000000266    0.000000404    0.000002243
     10        6           0.000000214   -0.000001503    0.000000057
     11        6           0.000001634   -0.000000394   -0.000001187
     12        8           0.000000170   -0.000002347   -0.000001919
     13        8          -0.000000064   -0.000000693   -0.000000857
     14        1           0.000000570   -0.000000814    0.000001059
     15        1          -0.000000013   -0.000000442    0.000000641
     16        1           0.000000046    0.000000229    0.000000336
     17        1          -0.000000575   -0.000000269   -0.000000347
     18        1          -0.000000177    0.000000491   -0.000000255
     19        1           0.000000205   -0.000000804    0.000000209
     20        1          -0.000000172   -0.000001175    0.000000152
     21        1           0.000000441   -0.000000273   -0.000000212
     22        1          -0.000000751    0.000000542   -0.000000837
     23        1          -0.000000728    0.000000130   -0.000001214
     24        1          -0.000000413   -0.000000334   -0.000001297
     25        6           0.000000422   -0.000000366    0.000001407
     26        1          -0.000003329   -0.000001499    0.000004849
     27        1           0.000001736    0.000003571    0.000000967
     28        1          -0.000001030    0.000002525    0.000000843
     29        1          -0.000000373    0.000000282    0.000001073
     30        1           0.000000114   -0.000000167   -0.000000221
     31        8           0.000000513    0.000000908    0.000000661
     32        1           0.000000373    0.000001932    0.000000202
     33        1           0.000000725    0.000001587   -0.000000191
     34        1           0.000000808   -0.000001702    0.000001001
     35        1           0.000001346   -0.000000337    0.000000437
     36        1          -0.000001820   -0.000000886   -0.000000382
 -------------------------------------------------------------------
 Cartesian Forces:  Max     0.000004849 RMS     0.000001229

 GradGradGradGradGradGradGradGradGradGradGradGradGradGradGradGradGradGrad
 Berny optimization.
 FormGI is forming the generalized inverse of G from B-inverse, IUseBI=4.
 Internal  Forces:  Max     0.000004801 RMS     0.000000735
 Search for a local minimum.
 Step number   1 out of a maximum of  200
 All quantities printed in internal units (Hartrees-Bohrs-Radians)
 Mixed Optimization -- En-DIIS/RFO-DIIS
 Second derivative matrix not updated -- first step.
 ITU=  0
     Eigenvalues ---    0.00230   0.00230   0.00230   0.00230   0.00230
     Eigenvalues ---    0.00230   0.00230   0.00230   0.00230   0.00249
     Eigenvalues ---    0.00377   0.00583   0.00896   0.01019   0.01109
     Eigenvalues ---    0.01112   0.01523   0.01935   0.02129   0.02141
     Eigenvalues ---    0.02173   0.02239   0.02287   0.02348   0.02383
     Eigenvalues ---    0.02450   0.02607   0.03439   0.04628   0.04873
     Eigenvalues ---    0.05051   0.05289   0.05682   0.06125   0.06288
     Eigenvalues ---    0.06290   0.06296   0.06701   0.06820   0.06988
     Eigenvalues ---    0.07275   0.07576   0.08265   0.09336   0.09933
     Eigenvalues ---    0.10407   0.13332   0.15945   0.15982   0.16000
     Eigenvalues ---    0.16000   0.16000   0.16000   0.16000   0.16000
     Eigenvalues ---    0.16000   0.16000   0.16000   0.16000   0.16000
     Eigenvalues ---    0.16000   0.16246   0.18337   0.20673   0.21999
     Eigenvalues ---    0.22000   0.23452   0.24984   0.25889   0.27161
     Eigenvalues ---    0.28954   0.30966   0.32735   0.32826   0.32855
     Eigenvalues ---    0.33832   0.33997   0.34043   0.34076   0.34138
     Eigenvalues ---    0.34139   0.34253   0.34732   0.34757   0.35110
     Eigenvalues ---    0.35111   0.35141   0.35571   0.38132   0.38210
     Eigenvalues ---    0.43324   0.43564   0.46765   0.48108   0.52576
     Eigenvalues ---    0.52580   0.54427   0.55277   0.55278   0.55291
     Eigenvalues ---    0.55293   0.56326
 RFO step:  Lambda=-2.31134233D-08 EMin= 2.30000000D-03
 Linear search not attempted -- first point.
 Iteration  1 RMS(Cart)=  0.00191882 RMS(Int)=  0.00000084
 Iteration  2 RMS(Cart)=  0.00000192 RMS(Int)=  0.00000002
 Iteration  3 RMS(Cart)=  0.00000000 RMS(Int)=  0.00000002
 Variable       Old X    -DE/DX   Delta X   Delta X   Delta X     New X
                                 (Linear)    (Quad)   (Total)
    R1        2.64238  -0.00000   0.00000  -0.00000  -0.00000   2.64238
    R2        2.63354   0.00000   0.00000   0.00000   0.00000   2.63354
    R3        2.06112  -0.00000   0.00000  -0.00000  -0.00000   2.06112
    R4        2.62300   0.00000   0.00000   0.00000   0.00000   2.62300
    R5        2.86078   0.00000   0.00000   0.00000   0.00000   2.86078
    R6        2.53459  -0.00000   0.00000  -0.00000  -0.00000   2.53458
    R7        2.05495   0.00000   0.00000   0.00000   0.00000   2.05495
    R8        2.53360   0.00000   0.00000   0.00000   0.00000   2.53360
    R9        2.00760  -0.00000   0.00000  -0.00000  -0.00000   2.00760
   R10        2.61468   0.00000   0.00000   0.00000   0.00000   2.61468
   R11        2.05446  -0.00000   0.00000  -0.00000  -0.00000   2.05446
   R12        2.05497   0.00000   0.00000   0.00000   0.00000   2.05497
   R13        2.75388   0.00000   0.00000   0.00000   0.00000   2.75388
   R14        2.94471  -0.00000   0.00000  -0.00000  -0.00000   2.94470
   R15        2.09359  -0.00000   0.00000  -0.00000  -0.00000   2.09359
   R16        2.75983   0.00000   0.00000   0.00000   0.00000   2.75983
   R17        2.74174  -0.00000   0.00000  -0.00000  -0.00000   2.74174
   R18        2.87717  -0.00000   0.00000  -0.00000  -0.00000   2.87717
   R19        2.07258   0.00000   0.00000   0.00000   0.00000   2.07258
   R20        2.09519   0.00000   0.00000   0.00000   0.00000   2.09519
   R21        2.90810   0.00000   0.00000   0.00000   0.00000   2.90810
   R22        2.06905   0.00000   0.00000   0.00000   0.00000   2.06905
   R23        2.07335  -0.00000   0.00000  -0.00000  -0.00000   2.07335
   R24        2.07097   0.00000   0.00000   0.00000   0.00000   2.07097
   R25        2.07098   0.00000   0.00000   0.00000   0.00000   2.07098
   R26        2.94613   0.00000   0.00000   0.00001   0.00001   2.94614
   R27        1.84048  -0.00000   0.00000  -0.00000  -0.00000   1.84048
   R28        1.84051   0.00000   0.00000   0.00000   0.00000   1.84051
   R29        3.37325   0.00000   0.00000   0.00001   0.00001   3.37327
   R30        1.81586  -0.00000   0.00000  -0.00000  -0.00000   1.81585
   R31        1.81573   0.00000   0.00000   0.00000   0.00000   1.81573
   R32        2.07203   0.00000   0.00000   0.00000   0.00000   2.07203
   R33        2.07615   0.00000   0.00000   0.00000   0.00000   2.07615
[...]
 651,-0.00004252,0.00001565,-0.00002655,-0.00001041,0.00000635,-0.00001
 166,0.00006449,0.00000444,0.00000157,0.00412568,-0.00239737,-0.0003576
 1,-0.00157320,0.00104039,0.00140162,0.00190324,-0.00142775,-0.00330114
 ,-0.00006317,-0.00015546,0.00015632,0.00011240,0.00012287,0.00016181,0
 .21172492,-0.10963978,0.22491287,-0.00000670,0.00000936,-0.00000150,-0
 .00000990,-0.00001575,0.00000335,-0.00003189,-0.00002705,-0.00000990,0
 .00006237,-0.00004363,0.00001670,-0.00000755,0.00004809,-0.00000128,0.
 00001560,0.00001096,0.00000737,-0.00001689,-0.00001504,-0.00002111,0.0
 0002676,0.00001079,0.00003004,-0.00001400,-0.00000424,0.00000048,-0.00
 001292,0.00000267,-0.00000579,-0.00000635,0.00000054,-0.00000344,0.000
 52936,-0.00041819,0.00073622,-0.00015861,-0.00001139,0.00003022,-0.000
 00330,0.00000364,-0.00000116,0.00000275,0.00000111,0.00000012,0.000004
 62,-0.00000740,0.00000287,0.00000607,-0.00000046,0.00000289,-0.0000020
 2,0.00000907,0.00000575,0.00000947,-0.00000266,0.00000721,0.00000779,0
 .00000273,0.00000512,-0.00000795,-0.00000718,-0.00001365,0.00000872,0.
 00002302,-0.00003954,0.00000209,0.00000350,-0.00000735,0.00000190,0.00
 000136,-0.00000338,-0.00000635,-0.00000058,-0.00003059,-0.00010851,0.0
 0001013,-0.00006154,0.00015340,0.00011111,-0.00024914,-0.00122653,0.00
 025137,-0.00064518,0.00005905,0.00001116,0.00007573,0.00003808,0.00001
 716,-0.00000509,-0.34345428,-0.20039873,-0.17924407,0.34618395,0.00003
 655,0.00004420,0.00000145,0.00005389,-0.00007526,0.00000529,-0.0001044
 3,0.00000773,0.00000182,0.00022283,-0.00009045,-0.00000622,0.00013438,
 0.00006376,0.00000871,-0.00006874,-0.00003837,-0.00001352,0.00000304,0
 .00002676,0.00001540,0.00001118,-0.00002937,-0.00000104,-0.00000267,0.
 00000744,-0.00000510,-0.00001191,0.00000805,-0.00000689,0.00000229,0.0
 0000120,-0.00000195,0.00053568,-0.00142844,0.00213243,-0.00001710,-0.0
 0010402,0.00016346,-0.00000308,-0.00000659,-0.00000334,0.00000137,-0.0
 0000188,0.00000160,0.00000288,-0.00000045,0.00000511,0.00000123,-0.000
 00347,0.00000304,-0.00000351,0.00000064,-0.00000487,0.00000077,-0.0000
 0196,0.00000252,0.00000225,-0.00000733,0.00000190,-0.00002869,0.000006
 80,-0.00001154,0.00001953,-0.00000339,0.00005779,0.00001653,-0.0000084
 4,0.00000945,-0.00000134,-0.00000034,0.00000248,-0.00000509,0.00000430
 ,0.00000156,-0.00042731,0.00036325,0.00001156,0.00014075,-0.00007635,-
 0.00003456,-0.00019778,0.00241194,-0.00365254,0.00000895,0.00009338,-0
 .00000243,-0.00002904,0.00002352,-0.00007103,-0.15719984,-0.13521120,-
 0.06169757,0.19424049,0.15228552,-0.00000004,-0.00000295,0.00000350,-0
 .00001084,-0.00000833,0.00000106,-0.00000994,-0.00001101,0.00000121,0.
 00004781,-0.00005437,0.00000891,-0.00004200,0.00000832,0.00000821,0.00
 003501,0.00000678,-0.00000837,-0.00000880,-0.00000506,-0.00000577,0.00
 002389,0.00000381,-0.00001719,-0.00001505,-0.00000542,0.00001218,0.000
 00685,-0.00000470,-0.00000288,0.00000315,0.00000904,0.00001427,0.00035
 270,0.00141903,-0.00183043,0.00023915,0.00001368,0.00018295,-0.0000002
 4,-0.00000006,0.00000033,0.00000482,0.00000288,-0.00000093,-0.00000510
 ,0.00000352,0.00000369,0.00000309,0.00000028,-0.00000240,-0.00000383,-
 0.00000422,0.00000221,0.00000506,0.00000010,-0.00000159,0.00000403,0.0
 0000193,-0.00000049,-0.00001210,0.00000079,0.00000704,-0.00002731,0.00
 002162,0.00000535,-0.00000189,0.00000090,0.00000698,0.00000298,0.00000
 039,0.00000366,-0.00000976,0.00000084,0.00000782,-0.00014809,0.0001080
 2,-0.00003741,-0.00050539,0.00005047,-0.00013264,-0.00142958,-0.003211
 85,0.00244269,-0.00004834,-0.00000618,-0.00020042,-0.00005033,-0.00004
 075,-0.00007001,-0.19600762,-0.09429710,-0.11442348,0.18335828,0.08381
 790,0.10786908,0.00002060,0.00005049,-0.00000386,0.00001689,-0.0000782
 2,0.00000312,-0.00002719,0.00012977,-0.00000445,-0.00014956,0.00013225
 ,0.00001015,0.00004888,-0.00005847,0.00000046,-0.00007085,-0.00000382,
 -0.00000368,-0.00001060,0.00004181,-0.00000016,0.00003007,-0.00003546,
 0.00005636,-0.00001150,0.00001376,-0.00001996,-0.00005601,0.00002577,-
 0.00002572,-0.00000300,-0.00000442,-0.00001770,-0.00094374,-0.00019815
 ,-0.00155216,-0.00010929,0.00001165,-0.00014203,-0.00001312,-0.0000082
 3,-0.00000962,0.00000740,-0.00000614,0.00000661,0.00001309,-0.00001386
 ,0.00001588,0.00000699,-0.00000957,0.00001254,-0.00000592,0.00001701,-
 0.00000112,0.00001042,-0.00000860,0.00001854,0.00000481,-0.00001293,0.
 00001002,-0.00002346,0.00001514,-0.00006612,0.00001644,-0.00002023,0.0
 0000197,-0.00000102,0.00000128,-0.00000381,-0.00000029,-0.00000018,-0.
 00000277,-0.00000282,0.00000184,-0.00004836,0.00046134,-0.00013291,-0.
 00004142,-0.00011887,0.00003581,-0.00008557,0.00136991,0.00096852,0.00
 302974,0.00003121,-0.00003429,0.00006240,0.00008505,0.00001774,0.00004
 187,-0.03156407,0.00402387,-0.02753147,-0.00204690,-0.03733078,0.01424
 637,0.03303166,0.00001084,0.00000677,-0.00000046,0.00003327,-0.0000084
 2,-0.00000668,0.00003354,0.00007414,0.00001092,-0.00015873,0.00010967,
 -0.00001634,0.00000976,-0.00008538,0.00000455,-0.00004671,-0.00000012,
 -0.00000331,0.00001838,0.00005063,0.00002923,-0.00001951,-0.00004888,-
 0.00001333,0.00000944,0.00002892,-0.00001514,-0.00001061,0.00000676,0.
 00000030,0.00000771,-0.00000293,-0.00000439,-0.00115602,0.00033736,-0.
 00160403,0.00001233,-0.00015455,-0.00011227,-0.00000354,-0.00001330,-0
 .00000503,-0.00000337,-0.00000303,0.00000174,0.00000513,0.00000947,0.0
 0000405,-0.00000445,-0.00000524,0.00000223,-0.00000014,-0.00000768,-0.
 00000978,-0.00000650,-0.00000447,0.00000065,-0.00000651,-0.00001341,-0
 .00000010,0.00001472,0.00003181,0.00000737,0.00000630,-0.00001497,0.00
 001723,-0.00000110,-0.00000164,0.00000449,-0.00000119,0.00000169,0.000
 00198,0.00000347,0.00001163,0.00001603,0.00031805,-0.00018444,0.000049
 21,-0.00002529,0.00018641,0.00025296,0.00156200,-0.00070865,0.00217718
 ,0.00001332,0.00002709,0.00003946,0.00002308,0.00007526,-0.00006108,-0
 .03929200,-0.46582898,0.16788519,0.00618553,-0.01825787,0.01217931,0.0
 3247998,0.48439518,0.00001171,0.00001231,0.00000026,-0.00000545,-0.000
 04519,0.00000010,-0.00001602,0.00004018,0.00000643,0.00003470,0.000003
 42,0.00001024,-0.00000004,0.00001160,0.00000159,-0.00000209,-0.0000059
 3,-0.00000528,-0.00000844,0.00001168,0.00000170,0.00003980,-0.00001309
 ,-0.00002463,-0.00002568,-0.00000162,0.00001619,0.00001077,-0.00000713
 ,0.00000002,0.00000268,0.00000876,0.00001330,-0.00113583,-0.00079844,-
 0.00211200,0.00010008,-0.00024437,0.00017271,-0.00000317,-0.00000332,0
 .00000122,0.00000803,0.00000199,-0.00000103,-0.00000851,0.00000621,0.0
 0000842,0.00000265,0.00000006,-0.00000304,-0.00000394,-0.00000844,0.00
 000099,0.00000759,-0.00000122,-0.00000321,0.00000519,-0.00000251,-0.00
 000053,-0.00003559,0.00001383,0.00000339,-0.00000455,0.00000237,0.0000
 1380,0.00000005,0.00000046,0.00000467,0.00000133,-0.00000207,0.0000042
 6,-0.00001343,0.00000956,0.00001041,-0.00009497,0.00005758,-0.00004321
 ,-0.00030219,0.00049532,-0.00013060,0.00223652,0.00245801,0.00298296,0
 .00001543,0.00006464,-0.00006662,-0.00001035,0.00005372,-0.00021683,-0
 .00890226,0.19944213,-0.09551284,-0.00394015,-0.02072880,0.00616006,0.
 01203588,-0.18082996,0.08871994,0.00000910,0.00017775,0.00000819,0.000
 16067,0.00002458,0.00011578,0.00011925,-0.00005823,0.00006952,-0.00000
 889,0.00010698,-0.00003094,0.00003663,-0.00007068,0.00001054,-0.000064
 66,0.00000541,-0.00000828,0.00045245,0.00016704,-0.00009484,-0.0003972
 0,-0.00134187,0.00037888,0.00026720,0.00091277,0.00004142,-0.00010474,
 -0.00002369,0.00009328,0.00020372,-0.00013564,0.00013843,-0.00001154,0
 .00006092,0.00003560,0.00003257,0.00002657,0.00001428,0.00019391,-0.00
 009764,0.00016409,-0.00000554,0.00000612,0.00001226,-0.00001972,-0.000
 02392,-0.00005014,0.00003558,-0.00001083,-0.00007965,-0.00000858,-0.00
 001304,0.00006827,-0.00018164,0.00021427,-0.00016714,0.00010526,-0.000
 46639,0.00002298,-0.00001776,-0.00010999,-0.00004160,0.00000344,0.0000
 0109,0.00000836,-0.00000560,-0.00000074,-0.00000363,-0.00000779,-0.000
 00151,0.00000094,-0.05335130,0.03947779,0.00805264,0.00007379,-0.00007
 034,-0.00000883,-0.00001371,-0.00002372,-0.00002677,-0.00001228,-0.000
 00358,-0.00001929,-0.00000663,-0.00000845,0.00000005,-0.00003627,-0.00
 000753,-0.00000244,0.00000558,0.00000891,0.00001686,0.00000004,-0.0000
 0419,-0.00000367,-0.00000317,-0.00000437,-0.00000924,0.05189454,-0.000
 04457,0.00006091,0.00002681,0.00035355,0.00021654,0.00004366,0.0000286
 1,-0.00011128,0.00006082,-0.00014547,0.00007983,-0.00001865,-0.0000037
 3,-0.00006698,0.00001494,-0.00003009,0.00001965,-0.00001535,0.00038143
 ,0.00153802,-0.00065450,-0.00088649,-0.00220627,-0.00178124,-0.0005569
 0,0.00085422,0.00075877,0.00002982,0.00017769,-0.00019706,-0.00024134,
 -0.00016709,0.00023768,-0.00009431,0.00010553,0.00003706,0.00002009,0.
 00003526,0.00003906,0.00038163,0.00016706,-0.00048337,0.00001362,0.000
 03104,0.00000566,-0.00000710,0.00000070,0.00000117,0.00001627,0.000028
 79,-0.00005216,0.00006069,0.00011750,-0.00009207,0.00023560,-0.0002122
 6,0.00006027,-0.00031029,0.00036393,0.00020640,0.00002819,-0.00011596,
 -0.00009118,0.00000464,0.00000121,0.00000167,-0.00000998,-0.00000151,-
 0.00000087,-0.00000040,0.00003170,0.00001723,0.03931546,-0.30523398,-0
 .05473310,0.00019026,-0.00014612,-0.00000377,0.00000550,-0.00003554,-0
 .00006324,0.00000112,-0.00001192,0.00000882,-0.00000451,-0.00001013,-0
 .00000377,-0.00003340,-0.00001071,-0.00001009,-0.00000982,0.00001782,0
 .00000317,0.00000444,-0.00000578,-0.00000258,0.00000127,-0.00000887,-0
 .00000778,-0.04233874,0.32546482,-0.00022512,-0.00015380,0.00001650,0.
 00050920,0.00020540,-0.00003629,-0.00004099,-0.00004360,0.00001652,-0.
 00011944,-0.00001123,0.00000440,-0.00005465,0.00002909,-0.00002290,0.0
 0005274,-0.00003936,0.00003194,0.00142205,0.00125093,-0.00607732,0.003
 00579,-0.03785338,-0.01271431,-0.00006598,-0.00176770,0.00142951,-0.00
 038628,-0.00020037,0.00024580,-0.00004726,-0.00163699,-0.00051997,-0.0
 0001374,0.00003565,0.00000147,0.00000279,0.00000432,-0.00000639,0.0000
 6603,0.00063747,-0.00022191,-0.00000960,0.00009513,0.00005168,-0.00000
 653,0.00003753,-0.00000112,0.00010625,-0.00004345,-0.00030917,0.000258
 21,-0.00002012,-0.00039862,0.00015790,0.00030733,-0.00018509,0.0002289
 2,-0.00010759,-0.00000544,0.00005845,-0.00003503,-0.00001862,-0.000000
 20,0.00000067,-0.00000502,-0.00001535,-0.00000847,-0.00001059,0.000012
 47,0.00001708,-0.00002014,0.00738993,-0.04497374,-0.05703780,0.0000473
 7,-0.00005329,-0.00000316,-0.00000880,-0.00000515,-0.00000265,-0.00000
 431,-0.00000807,0.00000390,0.00000040,-0.00000062,0.00000160,-0.000001
 93,-0.00000249,0.00000842,0.00000307,0.00000924,0.00000029,-0.00000043
 ,-0.00000267,-0.00000054,-0.00000544,-0.00000497,-0.00000301,-0.008357
 06,0.06087723,0.06992296,0.00011823,0.00027104,0.00007772,0.00009545,-
 0.00002433,-0.00017242,0.00009279,-0.00022882,-0.00000335,-0.00000591,
 0.00018316,-0.00003970,0.00004597,-0.00009595,0.00004859,-0.00007450,0
 .00005977,-0.00009103,0.00041070,-0.00123203,0.00018039,0.00226848,0.0
 0224874,0.00079507,0.00089985,0.00097392,-0.00023083,0.00030845,-0.000
 27750,-0.00008207,-0.00014374,0.00006697,0.00004892,-0.00002382,0.0000
 4403,-0.00001429,-0.00000069,0.00001597,-0.00001060,-0.00002603,-0.000
 12282,-0.00000192,0.00000177,0.00002670,-0.00000156,0.00000892,0.00008
 850,0.00013654,0.00000062,0.00000465,-0.00001782,0.00004599,0.00006383
 ,-0.00000600,0.00050584,0.00012873,-0.00035600,-0.00054526,0.00008646,
 -0.00028137,-0.00001884,0.00010612,-0.00005075,0.00000825,0.00001229,0
 .00000119,0.00000273,0.00000520,-0.00000209,-0.00002908,0.00001211,0.0
 0004275,-0.19848476,-0.10757468,0.07833172,0.00007098,-0.00006291,0.00
 002732,-0.00000620,-0.00000958,0.00000026,0.00000103,-0.00000888,0.000
 02072,0.00000566,-0.00000658,0.00000573,-0.00000290,-0.00000727,0.0000
 0693,0.00000321,0.00001062,-0.00001417,-0.00000114,-0.00000299,0.00000
 290,-0.00000687,-0.00000423,0.00000210,0.00417214,0.00357966,-0.003090
 33,0.20974835,0.00026072,0.00031310,0.00001296,-0.00039573,-0.00027211
 ,-0.00015608,-0.00037487,0.00009144,-0.00020655,0.00034215,0.00016005,
 -0.00003274,0.00009013,-0.00017191,0.00004377,-0.00021920,-0.00001507,
 -0.00006147,0.00113508,0.00004920,-0.00020876,0.00484155,0.00273177,-0
 .00248738,0.00028590,0.00042078,-0.00057129,-0.00009243,0.00031997,-0.
 00039529,-0.00000677,0.00009525,0.00028446,0.00001498,-0.00007171,-0.0
 0009047,-0.00005789,-0.00002365,-0.00004612,0.00003143,0.00041331,-0.0
 0022970,-0.00003807,0.00004574,-0.00002461,0.00003793,0.00000028,-0.00
 004552,-0.00001547,0.00001673,0.00001939,-0.00000187,0.00002939,0.0000
 3691,-0.00009021,-0.00010878,-0.00002951,0.00009570,0.00001294,-0.0001
 1762,0.00004140,0.00004846,0.00024157,0.00000308,-0.00000384,-0.000001
 83,0.00000685,0.00001347,-0.00000435,0.00000084,-0.00002742,-0.0000042
 9,-0.10787979,-0.12400105,0.05608766,-0.00008680,0.00010950,0.00005008
 ,0.00002365,0.00002794,0.00006355,0.00001461,-0.00000635,0.00004412,0.
 00001474,0.00001039,0.00000534,0.00005313,-0.00000428,0.00001718,0.000
 00156,-0.00000231,-0.00003202,-0.00000276,0.00000459,0.00000645,-0.000
 00512,0.00000141,0.00001040,-0.02329370,-0.01352685,0.01202583,0.11690
 137,0.12811269,-0.00027511,-0.00052673,-0.00003268,-0.00013481,-0.0001
 7298,-0.00042813,-0.00013781,-0.00034569,-0.00025561,-0.00020456,-0.00
 034263,0.00005398,-0.00014939,0.00037462,-0.00008303,0.00037931,-0.000
 02837,0.00006391,0.00071255,0.00138034,0.00114479,0.02685372,0.0222435
 4,-0.01992539,-0.00132399,-0.00421692,-0.00489182,0.00163301,0.0011020
 2,-0.00082282,-0.00003916,0.00039436,-0.00004080,0.00014101,-0.0000653
 4,0.00003519,0.00002905,-0.00001098,-0.00003034,-0.00020652,0.00012039
 ,0.00011873,-0.00009737,-0.00029860,-0.00063696,-0.00004681,0.00001078
 ,-0.00006094,-0.00002667,-0.00004701,0.00006213,-0.00004989,-0.0001041
 3,-0.00000071,0.00032590,-0.00004485,-0.00002838,-0.00001043,-0.000437
 59,-0.00007730,0.00007212,0.00019609,-0.00028622,-0.00001066,0.0000062
 1,-0.00001110,0.00000396,-0.00000367,-0.00000426,0.00000180,0.00004378
 ,-0.00000651,0.07250445,0.05045686,-0.08568966,-0.00020999,0.00008565,
 -0.00003254,-0.00003965,0.00001200,0.00004249,-0.00001900,0.00001842,-
 0.00006511,-0.00000418,-0.00000093,0.00000516,-0.00000708,0.00000567,0
 .00000683,0.00001242,-0.00001803,0.00003534,-0.00000300,0.00000172,-0.
 00000374,0.00000413,0.00000659,-0.00000480,-0.00575706,-0.00299611,0.0
 0285194,-0.08542511,-0.06009290,0.10354506,-0.00003357,0.00037187,-0.0
 0004746,-0.00026026,-0.00047053,0.00018431,-0.00009640,0.00020635,0.00
 009807,0.00017394,0.00014224,-0.00002367,0.00007733,-0.00020271,-0.000
 01885,-0.00022480,-0.00004218,0.00002391,0.00151513,0.00032985,0.00133
 486,0.00301885,-0.00210241,-0.00695954,0.00312723,-0.00051601,0.001253
 36,0.00013209,0.00008511,0.00028603,0.00006018,-0.00007193,0.00013695,
 -0.00013023,0.00001789,-0.00003150,-0.00005333,-0.00000256,0.00002735,
 -0.00026536,0.00017205,-0.00002725,-0.00000976,-0.00003098,-0.00009536
 ,-0.00008197,0.00004556,0.00016738,0.00005857,-0.00002045,-0.00005065,
 0.00000483,-0.00008658,0.00006159,0.00034543,0.00102255,-0.00170297,-0
 .00032866,-0.00155281,-0.00111007,0.00031801,0.00014579,0.00016484,0.0
 0000924,-0.00001115,-0.00000196,-0.00001746,-0.00000446,-0.00001841,0.
 00002634,-0.00002265,-0.00002901,-0.23252957,0.06415595,-0.07704606,0.
 00014443,-0.00004805,0.00004991,0.00005307,-0.00000049,-0.00003701,0.0
 0003292,-0.00000650,0.00005960,0.00001069,0.00000734,-0.00000708,0.000
 02796,-0.00000316,-0.00000756,-0.00003360,0.00000313,-0.00003391,0.000
 00971,0.00000390,0.00000386,0.00001349,-0.00000258,0.00000738,-0.00350
 884,0.00006526,-0.00086812,-0.01944567,0.00836387,-0.00849516,0.247860
 05,0.00006576,0.00017239,-0.00000200,0.00013786,-0.00037169,0.00034534
 ,-0.00006156,-0.00004055,-0.00000127,0.00018895,0.00013510,0.00001420,
 0.00006174,-0.00013195,0.00002572,-0.00012368,-0.00000139,-0.00003903,
 -0.00320771,0.00309140,-0.00176892,-0.00427795,0.00187285,-0.00117730,
 0.00138527,0.00018272,0.00010209,-0.00018167,0.00006851,0.00010420,0.0
 0005944,0.00000862,0.00004846,0.00003710,0.00000402,-0.00000164,0.0000
 1356,0.00000883,-0.00001159,0.00016349,-0.00011906,-0.00010942,0.00000
 842,0.00001878,0.00007631,-0.00007364,-0.00011508,-0.00007560,0.000032
 02,-0.00000869,0.00001985,-0.00003062,-0.00001315,0.00005515,-0.000247
 98,-0.00019402,0.00018047,0.00077093,0.00027954,0.00120568,-0.00000198
 ,-0.00004506,0.00003077,0.00000442,-0.00000100,-0.00001250,0.00000152,
 0.00000375,-0.00000716,-0.00000545,-0.00002518,0.00000469,0.06359635,-
 0.07266924,0.02669206,-0.00002503,0.00002496,0.00001169,-0.00001111,-0
 .00000483,0.00001378,-0.00001152,-0.00000325,-0.00001374,-0.00000264,-
 0.00000325,0.00000306,-0.00001255,-0.00000574,0.00000462,0.00001116,0.
 00000331,0.00000955,-0.00000316,-0.00000214,-0.00000146,-0.00000658,-0
 .00000136,-0.00000436,0.02691859,-0.00744095,0.01143921,-0.01523126,0.
 00520693,-0.00670558,-0.06994050,0.07011586,-0.00019817,-0.00003573,0.
 00000621,0.00025821,-0.00055244,0.00026569,-0.00004159,0.00004464,0.00
 005412,-0.00011528,-0.00018389,0.00004494,-0.00004011,-0.00002781,-0.0
 0005634,-0.00000711,-0.00006356,0.00001577,-0.00174389,0.00634059,0.00
 100886,-0.02923083,0.00665762,-0.03461640,-0.00513448,-0.00223498,0.00
 210828,0.00044343,-0.00002374,0.00024575,0.00014882,0.00025917,0.00056
 487,-0.00005729,0.00004363,0.00005337,0.00001855,0.00001404,0.00003409
 ,0.00041079,0.00019584,-0.00011277,0.00019525,-0.00014181,-0.00009234,
 0.00015405,0.00006283,0.00028748,0.00007454,-0.00005740,-0.00006096,-0
 .00001018,-0.00002603,0.00008690,0.00200738,0.00012800,0.00061696,0.00
 109873,-0.00166328,0.00096425,0.00037774,0.00008511,-0.00017352,-0.000
 00207,-0.00001591,-0.00001027,-0.00001904,-0.00000861,-0.00001282,0.00
 002275,-0.00000048,-0.00000580,-0.07702132,0.02705347,-0.08050906,0.00
 011002,-0.00006640,-0.00001130,0.00000039,-0.00001945,-0.00005369,0.00
 000584,0.00000302,-0.00000932,-0.00000561,-0.00000354,-0.00000422,-0.0
 0002274,-0.00000097,-0.00000922,-0.00001408,0.00000305,0.00001030,0.00
 000491,-0.00000113,-0.00000294,0.00000939,-0.00000381,-0.00000500,0.00
 540820,-0.00119355,0.00301316,0.01016259,-0.00411117,0.00545327,0.0927
 5222,-0.03045534,0.10091169\\0.00000053,0.00000079,0.00000106,0.000000
 70,-0.00000012,0.00000054,0.00000095,-0.00000092,-0.00000010,0.0000032
 9,0.00000573,0.00000558,-0.00000113,-0.00000009,0.00000045,0.00000022,
 0.00000045,0.00000047,0.00000017,0.00000011,-0.00000010,0.00000046,0.0
 0000220,0.00000028,-0.00000017,-0.00000013,-0.00000094,-0.00000042,0.0
 0000008,0.00000003,-0.00000004,-0.00000008,-0.00000041,0.00000093,-0.0
 0000160,-0.00000159,-0.00000180,-0.00000147,0.00000055,-0.00000052,0.0
 0000047,-0.00000077,-0.00000029,0.00000007,-0.00000043,-0.00000036,-0.
 00000019,-0.00000050,0.00000021,0.00000042,0.00000011,0.00000024,-0.00
 000021,0.00000012,-0.00000031,0.00000089,-0.00000049,0.,0.00000072,0.0
 0000010,0.00000035,-0.00000017,-0.00000014,0.00000029,0.00000010,0.000
 00076,0.00000064,0.00000003,0.00000114,0.00000056,0.00000042,0.0000007
 5,-0.00000015,0.00000093,-0.00000047,-0.00000316,-0.00000930,-0.000005
 65,0.00000378,0.00000234,-0.00000006,-0.00000438,0.00000096,0.00000280
 ,-0.00000046,-0.00000021,-0.00000009,0.00000029,-0.00000008,-0.0000009
 4,0.00000008,-0.00000241,-0.00000027,0.00000036,-0.00000138,-0.0000004
 7,-0.00000027,-0.00000160,-0.00000039,-0.00000039,0.00000091,-0.000000
 45,0.00000008,0.00000102,-0.00000014,-0.00000026,0.00000135,-0.0000003
 4\\\@


 A successful marriage requires falling in love
 many times, always with the same person.
                           -- Mignon McLaughlin
 Job cpu time:       0 days 19 hours  8 minutes 48.1 seconds.
 Elapsed time:       0 days  0 hours 36 minutes  5.6 seconds.
 File lengths (MBytes):  RWF=   1060 Int=      0 D2E=      0 Chk=     28 Scr=      8
 Normal termination of Gaussian 16 at Mon Nov 15 12:04:13 2021.
