 Entering Gaussian System, Link 0=g16
 Input=NicPySs3h2.gjf
 Output=NicPySs3h2.log
 Initial command:
 /sw/contrib/gaussian/g16/A03/g16/l1.exe "/gscratch/scrubbed/gds001/Gau-22915.inp" -scrdir="/gscratch/scrubbed/gds001/"
 Entering Link 1 = /sw/contrib/gaussian/g16/A03/g16/l1.exe PID=     22916.
  
 Copyright (c) 1988,1990,1992,1993,1995,1998,2003,2009,2016,
            Gaussian, Inc.  All Rights Reserved.
  
 This is part of the Gaussian(R) 16 program.  It is based on
 the Gaussian(R) 09 system (copyright 2009, Gaussian, Inc.),
 the Gaussian(R) 03 system (copyright 2003, Gaussian, Inc.),
 the Gaussian(R) 98 system (copyright 1998, Gaussian, Inc.),
 the Gaussian(R) 94 system (copyright 1995, Gaussian, Inc.),
 the Gaussian 92(TM) system (copyright 1992, Gaussian, Inc.),
 the Gaussian 90(TM) system (copyright 1990, Gaussian, Inc.),
 the Gaussian 88(TM) system (copyright 1988, Gaussian, Inc.),
 the Gaussian 86(TM) system (copyright 1986, Carnegie Mellon
 University), and the Gaussian 82(TM) system (copyright 1983,
 Carnegie Mellon University). Gaussian is a federally registered
 trademark of Gaussian, Inc.
  
 This software contains proprietary and confidential information,
 including trade secrets, belonging to Gaussian, Inc.
  
 This software is provided under written license and may be
 used, copied, transmitted, or stored only in accord with that
 written license.
  
 The following legend is applicable only to US Government
 contracts under FAR:
  
                    RESTRICTED RIGHTS LEGEND
  
 Use, reproduction and disclosure by the US Government is
 subject to restrictions as set forth in subparagraphs (a)
 and (c) of the Commercial Computer Software - Restricted
 Rights clause in FAR 52.227-19.
  
 Gaussian, Inc.
 340 Quinnipiac St., Bldg. 40, Wallingford CT 06492
  
  
 ---------------------------------------------------------------
 Warning -- This program may not be used in any manner that
 competes with the business of Gaussian, Inc. or will provide
 assistance to any competitor of Gaussian, Inc.  The licensee
 of this program is prohibited from giving any competitor of
 Gaussian, Inc. access to this program.  By using this program,
 the user acknowledges that Gaussian, Inc. is engaged in the
 business of creating and licensing software in the field of
 computational chemistry and represents and warrants to the
 licensee that it is not a competitor of Gaussian, Inc. and that
 it will not use this program in any manner prohibited above.
 ---------------------------------------------------------------
  

 Cite this work as:
 Gaussian 16, Revision A.03,
 M. J. Frisch, G. W. Trucks, H. B. Schlegel, G. E. Scuseria, 
 M. A. Robb, J. R. Cheeseman, G. Scalmani, V. Barone, 
 G. A. Petersson, H. Nakatsuji, X. Li, M. Caricato, A. V. Marenich, 
 J. Bloino, B. G. Janesko, R. Gomperts, B. Mennucci, H. P. Hratchian, 
 J. V. Ortiz, A. F. Izmaylov, J. L. Sonnenberg, D. Williams-Young, 
 F. Ding, F. Lipparini, F. Egidi, J. Goings, B. Peng, A. Petrone, 
 T. Henderson, D. Ranasinghe, V. G. Zakrzewski, J. Gao, N. Rega, 
 G. Zheng, W. Liang, M. Hada, M. Ehara, K. Toyota, R. Fukuda, 
 J. Hasegawa, M. Ishida, T. Nakajima, Y. Honda, O. Kitao, H. Nakai, 
 T. Vreven, K. Throssell, J. A. Montgomery, Jr., J. E. Peralta, 
 F. Ogliaro, M. J. Bearpark, J. J. Heyd, E. N. Brothers, K. N. Kudin, 
 V. N. Staroverov, T. A. Keith, R. Kobayashi, J. Normand, 
 K. Raghavachari, A. P. Rendell, J. C. Burant, S. S. Iyengar, 
 J. Tomasi, M. Cossi, J. M. Millam, M. Klene, C. Adamo, R. Cammi, 
 J. W. Ochterski, R. L. Martin, K. Morokuma, O. Farkas, 
 J. B. Foresman, and D. J. Fox, Gaussian, Inc., Wallingford CT, 2016.
 
 ******************************************
 Gaussian 16:  ES64L-G16RevA.03 25-Dec-2016
                26-Jan-2023 
 ******************************************
 %nprocshared=28
 Will use up to   28 processors via shared memory.
 %mem=41GB
 -----------------------------
 # wB97XD/aug-cc-pVDZ opt freq
 -----------------------------
 1/18=20,19=15,26=3,38=1/1,3;
 2/9=110,12=2,17=6,18=5,40=1/2;
 3/5=16,7=10,11=2,25=1,30=1,71=1,74=-58/1,2,3;
 4//1;
 5/5=2,38=5/2;
 6/7=2,8=2,9=2,10=2,28=1/1;
 7//1,2,3,16;
 1/18=20,19=15,26=3/3(2);
 2/9=110/2;
 99//99;
 2/9=110/2;
 3/5=16,7=10,11=2,25=1,30=1,71=1,74=-58/1,2,3;
 4/5=5,16=3,69=1/1;
 5/5=2,38=5/2;
 7//1,2,3,16;
 1/18=20,19=15,26=3/3(-5);
 2/9=110/2;
 6/7=2,8=2,9=2,10=2,19=2,28=1/1;
 99/9=1/99;
 ----
 blah
 ----
 Symbolic Z-matrix:
 Charge =  1 Multiplicity = 1
 C                    -2.04658  -1.56313  -0.90675 
 C                    -1.66592  -0.60485   0.25239 
 N                    -2.85584   0.20432   0.45948 
 C                    -3.98107  -0.70966   0.2775 
 C                    -3.59126  -1.51782  -0.95891 
 C                    -0.46477   0.25182  -0.07047 
 C                     0.79622  -0.06459   0.40636 
 N                     1.86452   0.68158   0.07463 
 C                     1.77488   1.7616   -0.71442 
 C                     0.5414    2.14034  -1.21647 
 C                    -0.57943   1.38103  -0.89184 
 C                    -2.87576   0.91289   1.72588 
 H                    -1.42918  -1.20363   1.1575 
 H                    -1.6069   -1.22626  -1.85311 
 H                    -1.6602   -2.56945  -0.70973 
 H                    -3.92726  -1.00577  -1.86749 
 H                    -4.0374   -2.51759  -0.95366 
 H                    -4.09666  -1.37334   1.15845 
 H                    -4.91293  -0.14501   0.15652 
 H                    -1.56939   1.65524  -1.25653 
 H                     2.70111   2.29403  -0.9159 
 H                     2.80363   0.41041   0.45483 
 H                     0.98902  -0.91167   1.06166 
 H                    -2.03336   1.61504   1.78561 
 H                    -2.81914   0.22409   2.59234 
 H                    -3.80167   1.49382   1.80597 
 H                     0.46578   3.01976  -1.85173 
 O                     4.25974  -0.02255   1.03904 
 H                     4.66463   0.275     1.85665 
 H                     4.904    -0.61517   0.59933 
 O                     5.98308  -1.6746   -0.2462 
 H                     6.15409  -2.58622   0.0058 
 H                     6.76227  -1.38317  -0.72761 
 O                     6.62295  -4.28149   0.29362 
 H                     7.07677  -4.78584   0.99054 
 H                     6.10271  -4.96729  -0.16096 
 
 Add virtual bond connecting atoms O28        and H22        Dist= 3.08D+00.
 Add virtual bond connecting atoms O31        and H30        Dist= 3.27D+00.
 Add virtual bond connecting atoms O34        and H32        Dist= 3.37D+00.

 GradGradGradGradGradGradGradGradGradGradGradGradGradGradGradGradGradGrad
 Berny optimization.
 Initialization pass.
                           ----------------------------
                           !    Initial Parameters    !
                           ! (Angstroms and Degrees)  !
 --------------------------                            --------------------------
 ! Name  Definition              Value          Derivative Info.                !
 --------------------------------------------------------------------------------
 ! R1    R(1,2)                  1.5514         estimate D2E/DX2                !
 ! R2    R(1,5)                  1.5462         estimate D2E/DX2                !
 ! R3    R(1,14)                 1.0965         estimate D2E/DX2                !
 ! R4    R(1,15)                 1.0958         estimate D2E/DX2                !
 ! R5    R(2,3)                  1.4538         estimate D2E/DX2                !
 ! R6    R(2,6)                  1.5103         estimate D2E/DX2                !
 ! R7    R(2,13)                 1.1108         estimate D2E/DX2                !
 ! R8    R(3,4)                  1.461          estimate D2E/DX2                !
 ! R9    R(3,12)                 1.4513         estimate D2E/DX2                !
 ! R10   R(4,5)                  1.5277         estimate D2E/DX2                !
 ! R11   R(4,18)                 1.109          estimate D2E/DX2                !
 ! R12   R(4,19)                 1.0963         estimate D2E/DX2                !
 ! R13   R(5,16)                 1.0957         estimate D2E/DX2                !
 ! R14   R(5,17)                 1.0948         estimate D2E/DX2                !
 ! R15   R(6,7)                  1.3848         estimate D2E/DX2                !
 ! R16   R(6,11)                 1.401          estimate D2E/DX2                !
 ! R17   R(7,8)                  1.3446         estimate D2E/DX2                !
 ! R18   R(7,23)                 1.0882         estimate D2E/DX2                !
 ! R19   R(8,9)                  1.3406         estimate D2E/DX2                !
 ! R20   R(8,22)                 1.0488         estimate D2E/DX2                !
 ! R21   R(9,10)                 1.3846         estimate D2E/DX2                !
 ! R22   R(9,21)                 1.0872         estimate D2E/DX2                !
 ! R23   R(10,11)                1.3922         estimate D2E/DX2                !
 ! R24   R(10,27)                1.0875         estimate D2E/DX2                !
 ! R25   R(11,20)                1.0901         estimate D2E/DX2                !
 ! R26   R(12,24)                1.0983         estimate D2E/DX2                !
 ! R27   R(12,25)                1.1083         estimate D2E/DX2                !
 ! R28   R(12,26)                1.096          estimate D2E/DX2                !
 ! R29   R(22,28)                1.6276         estimate D2E/DX2                !
 ! R30   R(28,29)                0.9597         estimate D2E/DX2                !
 ! R31   R(28,30)                0.9796         estimate D2E/DX2                !
 ! R32   R(30,31)                1.7325         estimate D2E/DX2                !
 ! R33   R(31,32)                0.9611         estimate D2E/DX2                !
 ! R34   R(31,33)                0.9612         estimate D2E/DX2                !
 ! R35   R(32,34)                1.7823         estimate D2E/DX2                !
 ! R36   R(34,35)                0.9726         estimate D2E/DX2                !
 ! R37   R(34,36)                0.9735         estimate D2E/DX2                !
 ! A1    A(2,1,5)              104.6092         estimate D2E/DX2                !
 ! A2    A(2,1,14)             110.8968         estimate D2E/DX2                !
 ! A3    A(2,1,15)             110.2666         estimate D2E/DX2                !
 ! A4    A(5,1,14)             111.2511         estimate D2E/DX2                !
 ! A5    A(5,1,15)             112.6579         estimate D2E/DX2                !
 ! A6    A(14,1,15)            107.2125         estimate D2E/DX2                !
 ! A7    A(1,2,3)              104.4418         estimate D2E/DX2                !
 ! A8    A(1,2,6)              112.6929         estimate D2E/DX2                !
 ! A9    A(1,2,13)             109.1566         estimate D2E/DX2                !
 ! A10   A(3,2,6)              111.4505         estimate D2E/DX2                !
 ! A11   A(3,2,13)             111.0027         estimate D2E/DX2                !
 ! A12   A(6,2,13)             108.0874         estimate D2E/DX2                !
 ! A13   A(2,3,4)              105.3336         estimate D2E/DX2                !
 ! A14   A(2,3,12)             114.0341         estimate D2E/DX2                !
 ! A15   A(4,3,12)             113.7997         estimate D2E/DX2                !
 ! A16   A(3,4,5)              103.6047         estimate D2E/DX2                !
 ! A17   A(3,4,18)             110.8366         estimate D2E/DX2                !
 ! A18   A(3,4,19)             110.2543         estimate D2E/DX2                !
 ! A19   A(5,4,18)             110.6661         estimate D2E/DX2                !
 ! A20   A(5,4,19)             113.5815         estimate D2E/DX2                !
 ! A21   A(18,4,19)            107.8965         estimate D2E/DX2                !
 ! A22   A(1,5,4)              104.0703         estimate D2E/DX2                !
 ! A23   A(1,5,16)             110.365          estimate D2E/DX2                !
 ! A24   A(1,5,17)             112.3443         estimate D2E/DX2                !
 ! A25   A(4,5,16)             110.222          estimate D2E/DX2                !
 ! A26   A(4,5,17)             112.0382         estimate D2E/DX2                !
 ! A27   A(16,5,17)            107.8046         estimate D2E/DX2                !
 ! A28   A(2,6,7)              121.4            estimate D2E/DX2                !
 ! A29   A(2,6,11)             121.1597         estimate D2E/DX2                !
 ! A30   A(7,6,11)             117.4231         estimate D2E/DX2                !
 ! A31   A(6,7,8)              120.7783         estimate D2E/DX2                !
 ! A32   A(6,7,23)             123.1322         estimate D2E/DX2                !
 ! A33   A(8,7,23)             116.0893         estimate D2E/DX2                !
 ! A34   A(7,8,9)              122.6267         estimate D2E/DX2                !
 ! A35   A(7,8,22)             118.5857         estimate D2E/DX2                !
 ! A36   A(9,8,22)             118.7861         estimate D2E/DX2                !
 ! A37   A(8,9,10)             119.5632         estimate D2E/DX2                !
 ! A38   A(8,9,21)             116.5303         estimate D2E/DX2                !
 ! A39   A(10,9,21)            123.9059         estimate D2E/DX2                !
 ! A40   A(9,10,11)            118.9138         estimate D2E/DX2                !
 ! A41   A(9,10,27)            119.6675         estimate D2E/DX2                !
 ! A42   A(11,10,27)           121.4187         estimate D2E/DX2                !
 ! A43   A(6,11,10)            120.6909         estimate D2E/DX2                !
 ! A44   A(6,11,20)            118.2428         estimate D2E/DX2                !
 ! A45   A(10,11,20)           121.0607         estimate D2E/DX2                !
 ! A46   A(3,12,24)            110.4303         estimate D2E/DX2                !
 ! A47   A(3,12,25)            112.2124         estimate D2E/DX2                !
 ! A48   A(3,12,26)            109.521          estimate D2E/DX2                !
 ! A49   A(24,12,25)           108.3981         estimate D2E/DX2                !
 ! A50   A(24,12,26)           107.7671         estimate D2E/DX2                !
 ! A51   A(25,12,26)           108.3873         estimate D2E/DX2                !
 ! A52   A(22,28,29)           126.9259         estimate D2E/DX2                !
 ! A53   A(22,28,30)           126.0296         estimate D2E/DX2                !
 ! A54   A(29,28,30)           107.0091         estimate D2E/DX2                !
 ! A55   A(30,31,32)           124.2524         estimate D2E/DX2                !
 ! A56   A(30,31,33)           124.3285         estimate D2E/DX2                !
 ! A57   A(32,31,33)           105.9421         estimate D2E/DX2                !
 ! A58   A(32,34,35)           137.0268         estimate D2E/DX2                !
 ! A59   A(32,34,36)           117.0064         estimate D2E/DX2                !
 ! A60   A(35,34,36)           102.6298         estimate D2E/DX2                !
 ! A61   L(8,22,28,23,-1)      179.7489         estimate D2E/DX2                !
 ! A62   L(28,30,31,15,-1)     177.4372         estimate D2E/DX2                !
 ! A63   L(31,32,34,5,-1)      184.5536         estimate D2E/DX2                !
 ! A64   L(8,22,28,23,-2)      179.5455         estimate D2E/DX2                !
 ! A65   L(28,30,31,15,-2)     178.2837         estimate D2E/DX2                !
 ! A66   L(31,32,34,5,-2)      173.5715         estimate D2E/DX2                !
 ! D1    D(5,1,2,3)            -17.8308         estimate D2E/DX2                !
 ! D2    D(5,1,2,6)           -138.9626         estimate D2E/DX2                !
 ! D3    D(5,1,2,13)           100.9374         estimate D2E/DX2                !
 ! D4    D(14,1,2,3)           102.1993         estimate D2E/DX2                !
 ! D5    D(14,1,2,6)           -18.9325         estimate D2E/DX2                !
 ! D6    D(14,1,2,13)         -139.0325         estimate D2E/DX2                !
 ! D7    D(15,1,2,3)          -139.2045         estimate D2E/DX2                !
 ! D8    D(15,1,2,6)            99.6637         estimate D2E/DX2                !
 ! D9    D(15,1,2,13)          -20.4363         estimate D2E/DX2                !
 ! D10   D(2,1,5,4)             -7.6937         estimate D2E/DX2                !
 ! D11   D(2,1,5,16)           110.5448         estimate D2E/DX2                !
 ! D12   D(2,1,5,17)          -129.1098         estimate D2E/DX2                !
 ! D13   D(14,1,5,4)          -127.4864         estimate D2E/DX2                !
 ! D14   D(14,1,5,16)           -9.2479         estimate D2E/DX2                !
 ! D15   D(14,1,5,17)          111.0974         estimate D2E/DX2                !
 ! D16   D(15,1,5,4)           112.0887         estimate D2E/DX2                !
 ! D17   D(15,1,5,16)         -129.6728         estimate D2E/DX2                !
 ! D18   D(15,1,5,17)           -9.3274         estimate D2E/DX2                !
 ! D19   D(1,2,3,4)             38.1545         estimate D2E/DX2                !
 ! D20   D(1,2,3,12)           163.6356         estimate D2E/DX2                !
 ! D21   D(6,2,3,4)            160.107          estimate D2E/DX2                !
 ! D22   D(6,2,3,12)           -74.4119         estimate D2E/DX2                !
 ! D23   D(13,2,3,4)           -79.3517         estimate D2E/DX2                !
 ! D24   D(13,2,3,12)           46.1293         estimate D2E/DX2                !
 ! D25   D(1,2,6,7)           -100.1352         estimate D2E/DX2                !
 ! D26   D(1,2,6,11)            78.3159         estimate D2E/DX2                !
 ! D27   D(3,2,6,7)            142.8164         estimate D2E/DX2                !
 ! D28   D(3,2,6,11)           -38.7325         estimate D2E/DX2                !
 ! D29   D(13,2,6,7)            20.5788         estimate D2E/DX2                !
 ! D30   D(13,2,6,11)         -160.9702         estimate D2E/DX2                !
 ! D31   D(2,3,4,5)            -43.4242         estimate D2E/DX2                !
 ! D32   D(2,3,4,18)            75.3023         estimate D2E/DX2                !
 ! D33   D(2,3,4,19)          -165.297          estimate D2E/DX2                !
 ! D34   D(12,3,4,5)          -169.0507         estimate D2E/DX2                !
 ! D35   D(12,3,4,18)          -50.3242         estimate D2E/DX2                !
 ! D36   D(12,3,4,19)           69.0765         estimate D2E/DX2                !
 ! D37   D(2,3,12,24)           61.6522         estimate D2E/DX2                !
 ! D38   D(2,3,12,25)          -59.4061         estimate D2E/DX2                !
 ! D39   D(2,3,12,26)         -179.8221         estimate D2E/DX2                !
 ! D40   D(4,3,12,24)         -177.4751         estimate D2E/DX2                !
 ! D41   D(4,3,12,25)           61.4666         estimate D2E/DX2                !
 ! D42   D(4,3,12,26)          -58.9494         estimate D2E/DX2                !
 ! D43   D(3,4,5,1)             30.4859         estimate D2E/DX2                !
 ! D44   D(3,4,5,16)           -87.8509         estimate D2E/DX2                !
 ! D45   D(3,4,5,17)           152.1056         estimate D2E/DX2                !
 ! D46   D(18,4,5,1)           -88.3581         estimate D2E/DX2                !
 ! D47   D(18,4,5,16)          153.3051         estimate D2E/DX2                !
 ! D48   D(18,4,5,17)           33.2616         estimate D2E/DX2                !
 ! D49   D(19,4,5,1)           150.1079         estimate D2E/DX2                !
 ! D50   D(19,4,5,16)           31.7711         estimate D2E/DX2                !
 ! D51   D(19,4,5,17)          -88.2724         estimate D2E/DX2                !
 ! D52   D(2,6,7,8)            177.7624         estimate D2E/DX2                !
 ! D53   D(2,6,7,23)            -2.3915         estimate D2E/DX2                !
 ! D54   D(11,6,7,8)            -0.7443         estimate D2E/DX2                !
 ! D55   D(11,6,7,23)          179.1018         estimate D2E/DX2                !
 ! D56   D(2,6,11,10)         -178.0175         estimate D2E/DX2                !
 ! D57   D(2,6,11,20)            2.8303         estimate D2E/DX2                !
 ! D58   D(7,6,11,10)            0.4931         estimate D2E/DX2                !
 ! D59   D(7,6,11,20)         -178.6592         estimate D2E/DX2                !
 ! D60   D(6,7,8,9)              0.4845         estimate D2E/DX2                !
 ! D61   D(6,7,8,22)          -179.9664         estimate D2E/DX2                !
 ! D62   D(23,7,8,9)          -179.372          estimate D2E/DX2                !
 ! D63   D(23,7,8,22)            0.1771         estimate D2E/DX2                !
 ! D64   D(7,8,9,10)             0.0621         estimate D2E/DX2                !
 ! D65   D(7,8,9,21)           179.7982         estimate D2E/DX2                !
 ! D66   D(22,8,9,10)         -179.4861         estimate D2E/DX2                !
 ! D67   D(22,8,9,21)            0.2499         estimate D2E/DX2                !
 ! D68   D(7,8,28,29)          -90.8136         estimate D2E/DX2                !
 ! D69   D(7,8,28,30)           91.49           estimate D2E/DX2                !
 ! D70   D(9,8,28,29)           89.0219         estimate D2E/DX2                !
 ! D71   D(9,8,28,30)          -88.6745         estimate D2E/DX2                !
 ! D72   D(8,9,10,11)           -0.3088         estimate D2E/DX2                !
 ! D73   D(8,9,10,27)          179.6237         estimate D2E/DX2                !
 ! D74   D(21,9,10,11)         179.9758         estimate D2E/DX2                !
 ! D75   D(21,9,10,27)          -0.0917         estimate D2E/DX2                !
 ! D76   D(9,10,11,6)            0.0214         estimate D2E/DX2                !
 ! D77   D(9,10,11,20)         179.1496         estimate D2E/DX2                !
 ! D78   D(27,10,11,6)        -179.9099         estimate D2E/DX2                !
 ! D79   D(27,10,11,20)         -0.7817         estimate D2E/DX2                !
 ! D80   D(22,28,31,32)       -105.9855         estimate D2E/DX2                !
 ! D81   D(22,28,31,33)        102.4074         estimate D2E/DX2                !
 ! D82   D(29,28,31,32)         76.0143         estimate D2E/DX2                !
 ! D83   D(29,28,31,33)        -75.5929         estimate D2E/DX2                !
 ! D84   D(30,31,34,35)        -65.858          estimate D2E/DX2                !
 ! D85   D(30,31,34,36)         93.2562         estimate D2E/DX2                !
 ! D86   D(33,31,34,35)         89.174          estimate D2E/DX2                !
 ! D87   D(33,31,34,36)       -111.7118         estimate D2E/DX2                !
 --------------------------------------------------------------------------------
 Trust Radius=3.00D-01 FncErr=1.00D-07 GrdErr=1.00D-06 EigMax=2.50D+02 EigMin=1.00D-04
 Number of steps in this run=    200 maximum allowed number of steps=    216.
 GradGradGradGradGradGradGradGradGradGradGradGradGradGradGradGradGradGrad

                          Input orientation:                          
 ---------------------------------------------------------------------
 Center     Atomic      Atomic             Coordinates (Angstroms)
 Number     Number       Type             X           Y           Z
 ---------------------------------------------------------------------
      1          6           0       -2.046582   -1.563129   -0.906754
      2          6           0       -1.665920   -0.604853    0.252393
      3          7           0       -2.855838    0.204318    0.459479
      4          6           0       -3.981071   -0.709663    0.277502
      5          6           0       -3.591264   -1.517816   -0.958910
      6          6           0       -0.464768    0.251823   -0.070474
      7          6           0        0.796224   -0.064594    0.406356
      8          7           0        1.864516    0.681579    0.074631
      9          6           0        1.774881    1.761604   -0.714415
     10          6           0        0.541395    2.140341   -1.216468
     11          6           0       -0.579425    1.381033   -0.891839
     12          6           0       -2.875760    0.912893    1.725879
     13          1           0       -1.429182   -1.203625    1.157499
     14          1           0       -1.606902   -1.226256   -1.853111
     15          1           0       -1.660196   -2.569450   -0.709729
     16          1           0       -3.927255   -1.005771   -1.867488
     17          1           0       -4.037401   -2.517589   -0.953656
     18          1           0       -4.096665   -1.373342    1.158449
     19          1           0       -4.912925   -0.145011    0.156523
     20          1           0       -1.569385    1.655236   -1.256533
     21          1           0        2.701107    2.294032   -0.915896
     22          1           0        2.803625    0.410411    0.454834
     23          1           0        0.989023   -0.911667    1.061664
     24          1           0       -2.033361    1.615039    1.785611
     25          1           0       -2.819140    0.224088    2.592338
     26          1           0       -3.801672    1.493819    1.805971
     27          1           0        0.465784    3.019763   -1.851732
     28          8           0        4.259743   -0.022554    1.039040
     29          1           0        4.664630    0.275001    1.856651
     30          1           0        4.903999   -0.615169    0.599331
     31          8           0        5.983075   -1.674600   -0.246204
     32          1           0        6.154088   -2.586224    0.005797
     33          1           0        6.762270   -1.383165   -0.727613
     34          8           0        6.622955   -4.281493    0.293621
     35          1           0        7.076767   -4.785840    0.990541
     36          1           0        6.102707   -4.967293   -0.160964
 ---------------------------------------------------------------------
                    Distance matrix (angstroms):
                    1          2          3          4          5
     1  C    0.000000
     2  C    1.551392   0.000000
     3  N    2.375996   1.453804   0.000000
     4  C    2.423451   2.317658   1.461036   0.000000
     5  C    1.546226   2.451062   2.349133   1.527670   0.000000
     6  C    2.548637   1.510266   2.449556   3.661957   3.700800
     7  C    3.471514   2.525418   3.662334   4.822371   4.819321
     8  N    4.615032   3.761713   4.760003   6.012287   5.972527
     9  C    5.068967   4.286484   5.024612   6.342085   6.293638
    10  C    4.528713   3.816528   4.254195   5.550421   5.525153
    11  C    3.289508   2.536431   2.897029   4.160476   4.180789
    12  C    3.707961   2.436889   1.451291   2.439712   3.691664
    13  H    2.184392   1.110761   2.122471   2.744181   3.041793
    14  H    1.096537   2.196081   2.992400   3.231572   2.195972
    15  H    1.095808   2.187545   3.238888   3.133671   2.212928
    16  H    2.184168   3.125423   2.833201   2.166001   1.095716
    17  H    2.208292   3.276742   3.286612   2.188040   1.094811
    18  H    2.916149   2.705556   2.125376   1.109008   2.181631
    19  H    3.370095   3.280806   2.108416   1.096275   2.208070
    20  H    3.272298   2.719224   2.589367   3.709749   3.774233
    21  H    6.117052   5.370229   6.094112   7.422795   7.357035
    22  H    5.410480   4.587873   5.663216   6.878816   6.827250
    23  H    3.676135   2.792450   4.048581   5.035628   5.042734
    24  H    4.165304   2.722809   2.103623   3.387065   4.446823
    25  H    4.004327   2.737225   2.133266   2.753260   4.030108
    26  H    4.447938   3.373346   2.090563   2.687701   4.093749
    27  H    5.311108   4.702058   4.929665   6.181972   6.151942
    28  O    6.777110   6.005944   7.142748   8.304401   8.238078
    29  H    7.487022   6.589662   7.649479   8.843722   8.905131
    30  H    7.174782   6.579081   7.804242   8.891399   8.684030
    31  O    8.057552   7.739514   9.063923  10.024449   9.602109
    32  H    8.314473   8.070884   9.443078  10.311002   9.851093
    33  H    8.812511   8.520597   9.820249  10.811255  10.356993
    34  O    9.164675   9.067791  10.487970  11.189441  10.655375
    35  H    9.860076   9.719059  11.128358  11.806754  11.326396
    36  H    8.863151   8.919266  10.362724  10.954554  10.320304
                    6          7          8          9         10
     6  C    0.000000
     7  C    1.384770   0.000000
     8  N    2.373038   1.344642   0.000000
     9  C    2.776711   2.355610   1.340553   0.000000
    10  C    2.427379   2.749588   2.354904   1.384553   0.000000
    11  C    1.401036   2.380663   2.719586   2.391458   1.392182
    12  C    3.078438   4.022448   5.024972   5.320132   4.673434
    13  H    2.134559   2.610371   3.946523   4.750017   4.549835
    14  H    2.582050   3.497094   4.405311   4.654073   4.044066
    15  H    3.130060   3.681569   4.858807   5.527911   5.223593
    16  H    4.098734   5.326109   6.337475   6.442228   5.503697
    17  H    4.605796   5.588448   6.791515   7.221589   6.536877
    18  H    4.164383   5.120432   6.397893   6.914518   6.284727
    19  H    4.471589   5.715179   6.828152   7.008599   6.071041
    20  H    2.143941   3.364390   3.809420   3.389590   2.166177
    21  H    3.861104   3.307574   2.069066   1.087184   2.185937
    22  H    3.314135   2.063405   1.048815   2.061839   3.302059
    23  H    2.179209   1.088179   2.068612   3.304301   3.834711
    24  H    2.786376   3.567921   4.358009   4.557885   3.989710
    25  H    3.554491   4.234703   5.337113   5.865458   5.428833
    26  H    4.024740   5.052546   5.980214   6.125520   5.330606
    27  H    3.420570   3.836849   3.336829   2.142473   1.087502
    28  O    4.860793   3.521082   2.676378   3.525956   4.857113
    29  H    5.479514   4.145268   3.343881   4.143793   5.470340
    30  H    5.479414   4.148998   3.345941   4.143230   5.470126
    31  O    6.731765   5.470044   4.755738   5.453037   6.716180
    32  H    7.202054   5.935130   5.392931   6.212871   7.438862
    33  H    7.438756   6.214356   5.375384   5.896083   7.166126
    34  O    8.421362   7.193451   6.879156   7.812745   8.972496
    35  H    9.131186   7.878875   7.609148   8.595691   9.775171
    36  H    8.389225   7.246866   7.065941   8.019629   9.086294
                   11         12         13         14         15
    11  C    0.000000
    12  C    3.513511   0.000000
    13  H    3.406219   2.625889   0.000000
    14  H    2.962720   4.358340   3.015936   0.000000
    15  H    4.099701   4.420011   2.324949   1.764747   0.000000
    16  H    4.225718   4.207042   3.928112   2.330849   2.987483
    17  H    5.211590   4.505277   3.603649   2.895494   2.390250
    18  H    4.915408   2.653197   2.672877   3.910249   3.295018
    19  H    4.712440   2.780662   3.776120   4.017152   4.148318
    20  H    1.090050   3.339531   3.744368   2.942840   4.260893
    21  H    3.405295   6.323604   5.795848   5.641785   6.535819
    22  H    3.768377   5.841529   4.584267   5.240042   5.491947
    23  H    3.395979   4.325130   2.437650   3.915828   3.592275
    24  H    3.055720   1.098277   2.950326   4.636283   4.886299
    25  H    4.300504   1.108336   2.455425   4.830635   4.477795
    26  H    4.204019   1.095994   3.650401   5.060109   5.236871
    27  H    2.167785   5.329551   5.521175   4.724903   6.087961
    28  O    5.395915   7.229261   5.811439   6.650636   6.677616
    29  H    6.023090   7.568454   6.309492   7.439638   7.394635
    30  H    6.022985   8.008042   6.384905   6.984249   6.972912
    31  O    7.267747   9.437330   7.558687   7.771159   7.709423
    32  H    7.866707   9.835683   7.793843   8.095555   7.846993
    33  H    7.846544  10.207014   8.407483   8.445970   8.505617
    34  O    9.238170  10.920558   8.663513   9.037338   8.517534
    35  H   10.009544  11.492132   9.230998   9.806279   9.172668
    36  H    9.245881  10.897231   8.522493   8.734803   8.143308
                   16         17         18         19         20
    16  H    0.000000
    17  H    1.769976   0.000000
    18  H    3.052884   2.402873   0.000000
    19  H    2.410202   2.761913   1.782956   0.000000
    20  H    3.607461   4.857500   4.625102   4.051774   0.000000
    21  H    7.465213   8.280134   7.997640   8.066753   4.331420
    22  H    7.259717   7.573418   7.161763   7.742262   4.858146
    23  H    5.723511   5.648490   5.107517   6.019969   4.302148
    24  H    4.878587   5.347745   3.685238   3.747478   3.077585
    25  H    4.757155   4.644892   2.497977   3.233166   4.292305
    26  H    4.445000   4.874680   2.954136   2.577077   3.793164
    27  H    5.958520   7.193572   7.012596   6.555867   2.521529
    28  O    8.743086   8.890368   8.465722   9.215838   6.485628
    29  H    9.451459   9.561471   8.942305   9.736345   7.103514
    30  H    9.177626   9.272519   9.049828   9.838146   7.106593
    31  O   10.064320  10.080727  10.181599  11.010207   8.315541
    32  H   10.374994  10.236782  10.386415  11.334064   8.901432
    33  H   10.756751  10.861441  11.021515  11.773908   8.884149
    34  O   11.256450  10.877051  11.140714  12.255848  10.235339
    35  H   11.981058  11.508675  11.684132  12.883540  11.013299
    36  H   10.918151  10.461893  10.894243  12.029104  10.194075
                   21         22         23         24         25
    21  H    0.000000
    22  H    2.331832   0.000000
    23  H    4.137449   2.325707   0.000000
    24  H    5.493119   5.159315   4.005390   0.000000
    25  H    6.860430   6.018233   4.258522   1.789693   0.000000
    26  H    7.094719   6.828564   5.412127   1.772578   1.787725
    27  H    2.529653   4.194576   4.921158   4.631332   6.193245
    28  O    3.408474   1.627586   3.389490   6.545398   7.251493
    29  H    3.952079   2.333831   3.943383   6.831093   7.520016
    30  H    3.951215   2.341851   3.953315   7.382957   8.020181
    31  O    5.193250   3.866216   5.218538   8.900182   9.441468
    32  H    6.048925   4.517417   5.531446   9.372976   9.752275
    33  H    5.481813   4.503994   6.062525   9.626456  10.266877
    34  O    7.751216   6.052044   6.609599  10.579552  10.711560
    35  H    8.538472   6.748908   7.216295  11.162340  11.206878
    36  H    8.054046   6.338995   6.640232  10.644804  10.683186
                   26         27         28         29         30
    26  H    0.000000
    27  H    5.823957   0.000000
    28  O    8.238567   5.657418   0.000000
    29  H    8.553733   6.238279   0.959667   0.000000
    30  H    9.038391   6.238445   0.979593   1.559023   0.000000
    31  O   10.487687   7.419923   2.711269   3.156143   1.732550
    32  H   10.908920   8.199653   3.350901   3.718972   2.408332
    33  H   11.238014   7.764995   3.351860   3.718606   2.409101
    34  O   12.013088   9.788852   4.927371   5.199975   4.060813
    35  H   12.587275  10.616547   5.534155   5.672801   4.718948
    36  H   11.987974   9.921021   5.411744   5.798318   4.577765
                   31         32         33         34         35
    31  O    0.000000
    32  H    0.961149   0.000000
    33  H    0.961163   1.534642   0.000000
    34  O    2.738019   1.782306   3.076139   0.000000
    35  H    3.522147   2.580575   3.824809   0.972630   0.000000
    36  H    3.295968   2.387455   3.688101   0.973461   1.519106
                   36
    36  H    0.000000
 Stoichiometry    C10H21N2O3(1+)
 Framework group  C1[X(C10H21N2O3)]
 Deg. of freedom   102
 Full point group                 C1      NOp   1
 Largest Abelian subgroup         C1      NOp   1
 Largest concise Abelian subgroup C1      NOp   1
                         Standard orientation:                         
 ---------------------------------------------------------------------
 Center     Atomic      Atomic             Coordinates (Angstroms)
 Number     Number       Type             X           Y           Z
 ---------------------------------------------------------------------
      1          6           0        2.286542    1.703395   -0.969008
      2          6           0        2.110359    0.732972    0.228512
      3          7           0        3.446961    0.218286    0.477792
      4          6           0        4.343672    1.351577    0.262881
      5          6           0        3.803298    2.001046   -1.009895
      6          6           0        1.134746   -0.382190   -0.063884
      7          6           0       -0.172281   -0.335130    0.391145
      8          7           0       -1.042787   -1.313441    0.085877
      9          6           0       -0.703171   -2.377941   -0.654787
     10          6           0        0.591281   -2.492866   -1.132462
     11          6           0        1.510187   -1.490357   -0.834542
     12          6           0        3.604151   -0.415314    1.773974
     13          1           0        1.732464    1.300743    1.105223
     14          1           0        1.947460    1.238414   -1.902394
     15          1           0        1.683202    2.605659   -0.818355
     16          1           0        4.258736    1.539706   -1.893261
     17          1           0        4.016001    3.074404   -1.045560
     18          1           0        4.295211    2.060023    1.114735
     19          1           0        5.379459    1.004093    0.172211
     20          1           0        2.541870   -1.552031   -1.181005
     21          1           0       -1.484696   -3.111066   -0.838405
     22          1           0       -2.024463   -1.242763    0.448271
     23          1           0       -0.558632    0.473993    1.007738
     24          1           0        2.938000   -1.284330    1.859216
     25          1           0        3.382445    0.278665    2.609228
     26          1           0        4.634637   -0.771694    1.884853
     27          1           0        0.870264   -3.358765   -1.728322
     28          8           0       -3.549279   -1.121206    1.004324
     29          1           0       -3.890581   -1.467524    1.831692
     30          1           0       -4.302196   -0.705533    0.535352
     31          8           0       -5.576428    0.051309   -0.362005
     32          1           0       -5.949618    0.911553   -0.151012
     33          1           0       -6.263815   -0.425869   -0.834906
     34          8           0       -6.787857    2.470244    0.059825
     35          1           0       -7.353159    2.889139    0.731368
     36          1           0       -6.425998    3.235354   -0.421103
 ---------------------------------------------------------------------
 Rotational constants (GHZ):           0.7686466           0.1774599           0.1578639
 Standard basis: Aug-CC-pVDZ (5D, 7F)
 There are   564 symmetry adapted cartesian basis functions of A   symmetry.
 There are   534 symmetry adapted basis functions of A   symmetry.
   534 basis functions,   876 primitive gaussians,   564 cartesian basis functions
    59 alpha electrons       59 beta electrons
       nuclear repulsion energy       997.2495298216 Hartrees.
 NAtoms=   36 NActive=   36 NUniq=   36 SFac= 1.00D+00 NAtFMM=   60 NAOKFM=F Big=F
 Integral buffers will be    131072 words long.
 Raffenetti 2 integral format.
 Two-electron integral symmetry is turned on.
 Nuclear repulsion after empirical dispersion term =      997.2270210369 Hartrees.
 One-electron integrals computed using PRISM.
 NBasis=   534 RedAO= T EigKep=  2.45D-06  NBF=   534
 NBsUse=   534 1.00D-06 EigRej= -1.00D+00 NBFU=   534
 ExpMin= 2.97D-02 ExpMax= 1.17D+04 ExpMxC= 4.01D+02 IAcc=3 IRadAn=         5 AccDes= 0.00D+00
 Harris functional with IExCor= 4639 and IRadAn=       5 diagonalized for initial guess.
 HarFok:  IExCor= 4639 AccDes= 0.00D+00 IRadAn=         5 IDoV= 1 UseB2=F ITyADJ=14
 ICtDFT=  3500011 ScaDFX=  1.000000  1.000000  1.000000  1.000000
 FoFCou: FMM=F IPFlag=           0 FMFlag=      100000 FMFlg1=           0
         NFxFlg=           0 DoJE=T BraDBF=F KetDBF=T FulRan=T
         wScrn=  0.000000 ICntrl=       500 IOpCl=  0 I1Cent=   200000004 NGrid=           0
         NMat0=    1 NMatS0=      1 NMatT0=    0 NMatD0=    1 NMtDS0=    0 NMtDT0=    0
 Petite list used in FoFCou.
 Requested convergence on RMS density matrix=1.00D-08 within 128 cycles.
 Requested convergence on MAX density matrix=1.00D-06.
 Requested convergence on             energy=1.00D-06.
 No special actions if energy rises.
 SCF Done:  E(RwB97XD) =  -728.585871221     A.U. after   14 cycles
            NFock= 14  Conv=0.75D-08     -V/T= 2.0063

 **********************************************************************

            Population analysis using the SCF density.

 **********************************************************************

 Orbital symmetries:
       Occupied  (A) (A) (A) (A) (A) (A) (A) (A) (A) (A) (A) (A)
                 (A) (A) (A) (A) (A) (A) (A) (A) (A) (A) (A) (A)
                 (A) (A) (A) (A) (A) (A) (A) (A) (A) (A) (A) (A)
                 (A) (A) (A) (A) (A) (A) (A) (A) (A) (A) (A) (A)
                 (A) (A) (A) (A) (A) (A) (A) (A) (A) (A) (A)
       Virtual   (A) (A) (A) (A) (A) (A) (A) (A) (A) (A) (A) (A)
                 (A) (A) (A) (A) (A) (A) (A) (A) (A) (A) (A) (A)
                 (A) (A) (A) (A) (A) (A) (A) (A) (A) (A) (A) (A)
                 (A) (A) (A) (A) (A) (A) (A) (A) (A) (A) (A) (A)
                 (A) (A) (A) (A) (A) (A) (A) (A) (A) (A) (A) (A)
                 (A) (A) (A) (A) (A) (A) (A) (A) (A) (A) (A) (A)
                 (A) (A) (A) (A) (A) (A) (A) (A) (A) (A) (A) (A)
                 (A) (A) (A) (A) (A) (A) (A) (A) (A) (A) (A) (A)
                 (A) (A) (A) (A) (A) (A) (A) (A) (A) (A) (A) (A)
                 (A) (A) (A) (A) (A) (A) (A) (A) (A) (A) (A) (A)
                 (A) (A) (A) (A) (A) (A) (A) (A) (A) (A) (A) (A)
                 (A) (A) (A) (A) (A) (A) (A) (A) (A) (A) (A) (A)
                 (A) (A) (A) (A) (A) (A) (A) (A) (A) (A) (A) (A)
                 (A) (A) (A) (A) (A) (A) (A) (A) (A) (A) (A) (A)
                 (A) (A) (A) (A) (A) (A) (A) (A) (A) (A) (A) (A)
                 (A) (A) (A) (A) (A) (A) (A) (A) (A) (A) (A) (A)
                 (A) (A) (A) (A) (A) (A) (A) (A) (A) (A) (A) (A)
                 (A) (A) (A) (A) (A) (A) (A) (A) (A) (A) (A) (A)
                 (A) (A) (A) (A) (A) (A) (A) (A) (A) (A) (A) (A)
                 (A) (A) (A) (A) (A) (A) (A) (A) (A) (A) (A) (A)
                 (A) (A) (A) (A) (A) (A) (A) (A) (A) (A) (A) (A)
                 (A) (A) (A) (A) (A) (A) (A) (A) (A) (A) (A) (A)
                 (A) (A) (A) (A) (A) (A) (A) (A) (A) (A) (A) (A)
                 (A) (A) (A) (A) (A) (A) (A) (A) (A) (A) (A) (A)
                 (A) (A) (A) (A) (A) (A) (A) (A) (A) (A) (A) (A)
                 (A) (A) (A) (A) (A) (A) (A) (A) (A) (A) (A) (A)
                 (A) (A) (A) (A) (A) (A) (A) (A) (A) (A) (A) (A)
                 (A) (A) (A) (A) (A) (A) (A) (A) (A) (A) (A) (A)
                 (A) (A) (A) (A) (A) (A) (A) (A) (A) (A) (A) (A)
                 (A) (A) (A) (A) (A) (A) (A) (A) (A) (A) (A) (A)
                 (A) (A) (A) (A) (A) (A) (A) (A) (A) (A) (A) (A)
                 (A) (A) (A) (A) (A) (A) (A) (A) (A) (A) (A) (A)
                 (A) (A) (A) (A) (A) (A) (A) (A) (A) (A) (A) (A)
                 (A) (A) (A) (A) (A) (A) (A) (A) (A) (A) (A) (A)
                 (A) (A) (A) (A) (A) (A) (A) (A) (A) (A) (A) (A)
                 (A) (A) (A) (A) (A) (A) (A) (A) (A) (A) (A) (A)
                 (A) (A) (A) (A) (A) (A) (A) (A) (A) (A) (A) (A)
                 (A) (A) (A) (A) (A) (A) (A) (A) (A) (A) (A) (A)
                 (A) (A) (A) (A) (A) (A) (A) (A) (A) (A) (A) (A)
                 (A) (A) (A) (A) (A) (A) (A)
 The electronic state is 1-A.
 Alpha  occ. eigenvalues --  -19.39841 -19.39493 -19.37563 -14.67490 -14.54910
 Alpha  occ. eigenvalues --  -10.50831 -10.50491 -10.46939 -10.46558 -10.46455
 Alpha  occ. eigenvalues --  -10.44912 -10.41180 -10.41136 -10.40296 -10.38866
 Alpha  occ. eigenvalues --   -1.25732  -1.23995  -1.23592  -1.21722  -1.15426
 Alpha  occ. eigenvalues --   -1.07543  -1.04316  -0.98776  -0.94745  -0.90172
 Alpha  occ. eigenvalues --   -0.88501  -0.87226  -0.82446  -0.78164  -0.76989
 Alpha  occ. eigenvalues --   -0.75041  -0.74508  -0.73722  -0.73145  -0.72843
 Alpha  occ. eigenvalues --   -0.70306  -0.68534  -0.68175  -0.67470  -0.64281
 Alpha  occ. eigenvalues --   -0.63548  -0.62966  -0.62068  -0.61753  -0.59822
 Alpha  occ. eigenvalues --   -0.59096  -0.56933  -0.56756  -0.55858  -0.54968
 Alpha  occ. eigenvalues --   -0.53994  -0.53246  -0.52539  -0.52486  -0.52090
 Alpha  occ. eigenvalues --   -0.51116  -0.50488  -0.48641  -0.40973
 Alpha virt. eigenvalues --   -0.13756  -0.10210  -0.06551  -0.05164  -0.04488
 Alpha virt. eigenvalues --   -0.04363  -0.03508  -0.02889  -0.02613  -0.02528
 Alpha virt. eigenvalues --   -0.01892  -0.01356  -0.01066  -0.00671  -0.00492
 Alpha virt. eigenvalues --   -0.00074   0.00094   0.00976   0.01537   0.01863
 Alpha virt. eigenvalues --    0.02212   0.02424   0.02927   0.03055   0.03484
 Alpha virt. eigenvalues --    0.03631   0.03703   0.04139   0.04331   0.04645
 Alpha virt. eigenvalues --    0.05375   0.05783   0.05968   0.06132   0.06278
 Alpha virt. eigenvalues --    0.06677   0.07365   0.07394   0.07829   0.08061
 Alpha virt. eigenvalues --    0.08345   0.08493   0.08743   0.09106   0.09553
 Alpha virt. eigenvalues --    0.09650   0.10108   0.10412   0.10779   0.10995
 Alpha virt. eigenvalues --    0.11104   0.11563   0.12071   0.12373   0.12493
 Alpha virt. eigenvalues --    0.12650   0.12806   0.13273   0.13425   0.14113
 Alpha virt. eigenvalues --    0.14248   0.14589   0.14859   0.15182   0.15697
 Alpha virt. eigenvalues --    0.16071   0.16262   0.16523   0.16744   0.17006
 Alpha virt. eigenvalues --    0.17092   0.17729   0.17773   0.18096   0.18339
 Alpha virt. eigenvalues --    0.18744   0.19048   0.19215   0.19926   0.20189
 Alpha virt. eigenvalues --    0.20390   0.20626   0.20978   0.21192   0.21579
 Alpha virt. eigenvalues --    0.21993   0.22367   0.22700   0.22808   0.23460
 Alpha virt. eigenvalues --    0.23522   0.24442   0.24593   0.24721   0.24963
 Alpha virt. eigenvalues --    0.25770   0.25886   0.26350   0.26629   0.26822
 Alpha virt. eigenvalues --    0.27115   0.27331   0.27851   0.28374   0.28623
 Alpha virt. eigenvalues --    0.28786   0.29420   0.29743   0.30357   0.31206
 Alpha virt. eigenvalues --    0.31416   0.31619   0.31924   0.32190   0.32985
 Alpha virt. eigenvalues --    0.33250   0.33580   0.34047   0.34284   0.35202
 Alpha virt. eigenvalues --    0.35384   0.35821   0.36072   0.36875   0.37027
 Alpha virt. eigenvalues --    0.37502   0.38135   0.38297   0.38330   0.38874
 Alpha virt. eigenvalues --    0.39166   0.39939   0.40225   0.41275   0.41905
 Alpha virt. eigenvalues --    0.42003   0.42452   0.42773   0.43171   0.43363
 Alpha virt. eigenvalues --    0.43712   0.43998   0.44385   0.44721   0.45061
 Alpha virt. eigenvalues --    0.45556   0.45629   0.46081   0.46554   0.46931
 Alpha virt. eigenvalues --    0.47660   0.47815   0.47893   0.48492   0.49456
 Alpha virt. eigenvalues --    0.49731   0.50069   0.50355   0.50558   0.50790
 Alpha virt. eigenvalues --    0.51374   0.51663   0.51784   0.51971   0.52284
 Alpha virt. eigenvalues --    0.52893   0.53128   0.53549   0.54146   0.54288
 Alpha virt. eigenvalues --    0.54660   0.54966   0.55358   0.55916   0.56288
 Alpha virt. eigenvalues --    0.56485   0.57436   0.57782   0.58073   0.58157
 Alpha virt. eigenvalues --    0.59340   0.59730   0.60306   0.60400   0.61374
 Alpha virt. eigenvalues --    0.62041   0.62601   0.62982   0.63572   0.64029
 Alpha virt. eigenvalues --    0.64328   0.64542   0.64752   0.65240   0.65584
 Alpha virt. eigenvalues --    0.66188   0.66633   0.67683   0.67996   0.68467
 Alpha virt. eigenvalues --    0.68981   0.69364   0.70085   0.70580   0.70740
 Alpha virt. eigenvalues --    0.71157   0.71854   0.72102   0.72334   0.73091
 Alpha virt. eigenvalues --    0.73667   0.74020   0.74594   0.74890   0.75829
 Alpha virt. eigenvalues --    0.75967   0.76671   0.76983   0.77240   0.77598
 Alpha virt. eigenvalues --    0.78630   0.79297   0.79721   0.79842   0.80757
 Alpha virt. eigenvalues --    0.81210   0.81616   0.82326   0.83071   0.84008
 Alpha virt. eigenvalues --    0.84844   0.85604   0.85883   0.86582   0.87214
 Alpha virt. eigenvalues --    0.87897   0.88449   0.89604   0.90639   0.91580
 Alpha virt. eigenvalues --    0.92288   0.92348   0.92867   0.93714   0.95007
 Alpha virt. eigenvalues --    0.95353   0.96866   0.97698   0.97958   0.98160
 Alpha virt. eigenvalues --    0.99244   0.99573   1.00589   1.01438   1.01820
 Alpha virt. eigenvalues --    1.02931   1.03841   1.04337   1.05217   1.05981
 Alpha virt. eigenvalues --    1.06709   1.07216   1.08190   1.08647   1.09661
 Alpha virt. eigenvalues --    1.11052   1.12251   1.13192   1.15021   1.16100
 Alpha virt. eigenvalues --    1.16292   1.16652   1.17341   1.17403   1.18652
 Alpha virt. eigenvalues --    1.20272   1.21414   1.22261   1.23613   1.24578
 Alpha virt. eigenvalues --    1.24922   1.26168   1.27758   1.28483   1.29401
 Alpha virt. eigenvalues --    1.30341   1.31259   1.31714   1.32746   1.33784
 Alpha virt. eigenvalues --    1.34774   1.35586   1.36070   1.36538   1.37691
 Alpha virt. eigenvalues --    1.39028   1.39304   1.42191   1.42506   1.42645
 Alpha virt. eigenvalues --    1.43643   1.44578   1.45165   1.47302   1.47406
 Alpha virt. eigenvalues --    1.48047   1.48921   1.50703   1.51813   1.52048
 Alpha virt. eigenvalues --    1.53096   1.54478   1.55050   1.56837   1.57452
 Alpha virt. eigenvalues --    1.58753   1.60152   1.60530   1.62018   1.62759
 Alpha virt. eigenvalues --    1.63756   1.65023   1.65169   1.66604   1.66804
 Alpha virt. eigenvalues --    1.67922   1.68838   1.69152   1.69889   1.72019
 Alpha virt. eigenvalues --    1.72137   1.72813   1.73323   1.73552   1.73808
 Alpha virt. eigenvalues --    1.74418   1.75912   1.77564   1.78478   1.79165
 Alpha virt. eigenvalues --    1.79464   1.80235   1.81054   1.81981   1.82203
 Alpha virt. eigenvalues --    1.83245   1.84382   1.84902   1.85974   1.86328
 Alpha virt. eigenvalues --    1.87224   1.88420   1.88987   1.89641   1.90542
 Alpha virt. eigenvalues --    1.91513   1.92862   1.93535   1.94129   1.94521
 Alpha virt. eigenvalues --    1.95854   1.97416   1.97696   1.99636   1.99993
 Alpha virt. eigenvalues --    2.00382   2.01251   2.02699   2.03525   2.05948
 Alpha virt. eigenvalues --    2.06261   2.06848   2.08066   2.08818   2.09306
 Alpha virt. eigenvalues --    2.11768   2.12121   2.12177   2.14061   2.14401
 Alpha virt. eigenvalues --    2.15739   2.16471   2.16945   2.17835   2.19791
 Alpha virt. eigenvalues --    2.19926   2.20923   2.21613   2.22852   2.23077
 Alpha virt. eigenvalues --    2.24249   2.24969   2.25741   2.27318   2.27809
 Alpha virt. eigenvalues --    2.29508   2.30437   2.31052   2.33073   2.33439
 Alpha virt. eigenvalues --    2.35522   2.36246   2.37550   2.39803   2.41306
 Alpha virt. eigenvalues --    2.41719   2.43652   2.44713   2.45381   2.47372
 Alpha virt. eigenvalues --    2.48915   2.49200   2.50185   2.51617   2.52388
 Alpha virt. eigenvalues --    2.54785   2.55156   2.56020   2.56306   2.56810
 Alpha virt. eigenvalues --    2.58702   2.60675   2.61307   2.63713   2.64535
 Alpha virt. eigenvalues --    2.65719   2.65906   2.66984   2.68354   2.69424
 Alpha virt. eigenvalues --    2.70621   2.71437   2.73525   2.74671   2.75417
 Alpha virt. eigenvalues --    2.77431   2.78179   2.78957   2.82019   2.82301
 Alpha virt. eigenvalues --    2.83396   2.84515   2.86741   2.88334   2.90443
 Alpha virt. eigenvalues --    2.93042   2.96156   3.01781   3.04006   3.13133
 Alpha virt. eigenvalues --    3.14166   3.15781   3.21757   3.26894   3.28501
 Alpha virt. eigenvalues --    3.31467   3.33758   3.35106   3.36479   3.40487
 Alpha virt. eigenvalues --    3.42003   3.44278   3.48315   3.50013   3.50884
 Alpha virt. eigenvalues --    3.59789   3.65053   3.70045   3.77509   3.81409
 Alpha virt. eigenvalues --    3.88897   4.03131   4.07049   4.25941   4.88672
          Condensed to atoms (all electrons):
               1          2          3          4          5          6
     1  C    7.055711  -0.820736  -0.413723   0.323139  -0.655399   0.319927
     2  C   -0.820736  19.263433  -2.159267  -0.242242  -0.864398  -4.982902
     3  N   -0.413723  -2.159267   8.856118   0.126796   0.134066   0.727124
     4  C    0.323139  -0.242242   0.126796   5.655206   0.117297  -0.199924
     5  C   -0.655399  -0.864398   0.134066   0.117297   6.089517   0.552015
     6  C    0.319927  -4.982902   0.727124  -0.199924   0.552015  22.720085
     7  C   -0.665852  -1.774678   0.028671  -0.220480   0.142036  -7.039970
     8  N    0.026824   0.464481  -0.060577   0.018436  -0.013891   0.351100
     9  C   -0.146242  -0.880646   0.064777  -0.057694  -0.007146  -0.625929
    10  C    0.312228   0.234555  -0.175777   0.080233   0.055370   1.490559
    11  C   -0.218843  -0.961597   0.409932  -0.116353  -0.357231  -8.416129
    12  C   -0.066106  -0.356521   0.424443  -0.209595   0.003861   0.184714
    13  H    0.366573  -2.143888  -0.142965  -0.119212   0.069529   0.454946
    14  H   -0.334789   0.021229   0.041136   0.068254   0.279271  -0.486573
    15  H   -0.686203   0.228277   0.138804  -0.146675   0.234694   0.177411
    16  H    0.110057  -0.047584   0.084554  -0.025348  -0.209165   0.058689
    17  H    0.324598  -0.008248  -0.027876   0.120277  -0.322125  -0.042543
    18  H   -0.125943  -0.262718   0.445712  -0.272167   0.064803   0.171701
    19  H    0.126692   0.524936  -0.684932  -0.103230  -0.038927  -0.212045
    20  H    0.069258   0.118619  -0.232535   0.032839   0.008413   0.161216
    21  H    0.004211   0.014865   0.003694  -0.001079  -0.000396   0.222625
    22  H   -0.021797  -0.019817   0.001267  -0.003771   0.003446  -0.665166
    23  H    0.162353   0.028853   0.059864   0.014896  -0.000331   0.145955
    24  H    0.124984   0.167078  -0.172285  -0.073178  -0.067783   0.054863
    25  H   -0.026123  -0.273885   0.221007   0.011982   0.059076   0.001094
    26  H   -0.055541  -0.056835  -0.262021   0.030636   0.048022   0.116645
    27  H   -0.010704   0.014382  -0.004127   0.001242   0.005303  -0.396282
    28  O   -0.001921  -0.002081   0.000361   0.000128  -0.000156  -0.103593
    29  H    0.000459   0.002973  -0.000042   0.000108  -0.000070   0.012722
    30  H   -0.000490   0.001209   0.000140   0.000042  -0.000027  -0.012948
    31  O    0.000117  -0.000061  -0.000001  -0.000002   0.000009   0.000879
    32  H   -0.000037   0.000175  -0.000030  -0.000007   0.000015   0.000583
    33  H    0.000035  -0.000021   0.000005   0.000000   0.000001   0.000503
    34  O    0.000006   0.000014  -0.000000   0.000000  -0.000001   0.000310
    35  H    0.000004  -0.000003   0.000001   0.000000  -0.000000   0.000008
    36  H   -0.000002  -0.000007  -0.000001   0.000000  -0.000001   0.000013
               7          8          9         10         11         12
     1  C   -0.665852   0.026824  -0.146242   0.312228  -0.218843  -0.066106
     2  C   -1.774678   0.464481  -0.880646   0.234555  -0.961597  -0.356521
     3  N    0.028671  -0.060577   0.064777  -0.175777   0.409932   0.424443
     4  C   -0.220480   0.018436  -0.057694   0.080233  -0.116353  -0.209595
     5  C    0.142036  -0.013891  -0.007146   0.055370  -0.357231   0.003861
     6  C   -7.039970   0.351100  -0.625929   1.490559  -8.416129   0.184714
     7  C   18.502854  -0.956119  -0.506836  -1.547334  -0.807515  -0.023614
     8  N   -0.956119   7.395990   0.014552   0.403008  -0.474801  -0.016392
     9  C   -0.506836   0.014552  10.200840  -3.065137   1.162042   0.011708
    10  C   -1.547334   0.403008  -3.065137  13.647723  -5.527560  -0.011700
    11  C   -0.807515  -0.474801   1.162042  -5.527560  21.532652  -0.035721
    12  C   -0.023614  -0.016392   0.011708  -0.011700  -0.035721   4.472808
    13  H    0.403494  -0.011875   0.037469  -0.071209  -0.036665   0.059142
    14  H    0.121373   0.020760  -0.022234  -0.005280   0.086573   0.019535
    15  H   -0.032712  -0.012177   0.003746   0.029418  -0.048708   0.013605
    16  H    0.014611  -0.002149   0.002295   0.009038   0.012093  -0.015773
    17  H    0.004117  -0.000444   0.000854  -0.005061   0.000757   0.014603
    18  H    0.015195  -0.000153  -0.000456   0.003184   0.022551  -0.016264
    19  H   -0.015326   0.001945  -0.003249   0.003761  -0.008484  -0.011176
    20  H    0.152221  -0.026408  -0.225500   1.076629  -2.347505  -0.031378
    21  H    0.025561   0.016846  -0.878609   0.321960   0.037535   0.002878
    22  H    0.541403   0.017602  -0.352744  -0.179094   0.074955  -0.003194
    23  H   -1.043422   0.091060  -0.011255   0.032349   0.013325   0.004670
    24  H   -0.204774   0.023799  -0.011938   0.063050  -0.049849   0.257855
    25  H    0.078292  -0.009272   0.003561  -0.001005   0.024780   0.140997
    26  H    0.024586  -0.003092   0.004041  -0.004485  -0.039936   0.355013
    27  H    0.075558  -0.033904   0.529447  -1.312745   0.848077  -0.007692
    28  O    0.090799  -0.178108   0.021469  -0.050376   0.049350  -0.000428
    29  H   -0.013033   0.008145  -0.010364   0.011027  -0.004269  -0.000031
    30  H    0.006368   0.002438  -0.003309  -0.004296   0.011547  -0.000066
    31  O   -0.000271  -0.002170   0.004491   0.001585  -0.000318   0.000001
    32  H   -0.001436   0.001191   0.000635   0.000677  -0.000931   0.000008
    33  H    0.000685   0.000084  -0.001136   0.000084  -0.000205   0.000000
    34  O    0.000259   0.000236   0.000155   0.000050  -0.000017  -0.000000
    35  H   -0.000013  -0.000013  -0.000014  -0.000001   0.000010  -0.000000
    36  H   -0.000067   0.000027   0.000012  -0.000012   0.000016  -0.000000
              13         14         15         16         17         18
     1  C    0.366573  -0.334789  -0.686203   0.110057   0.324598  -0.125943
     2  C   -2.143888   0.021229   0.228277  -0.047584  -0.008248  -0.262718
     3  N   -0.142965   0.041136   0.138804   0.084554  -0.027876   0.445712
     4  C   -0.119212   0.068254  -0.146675  -0.025348   0.120277  -0.272167
     5  C    0.069529   0.279271   0.234694  -0.209165  -0.322125   0.064803
     6  C    0.454946  -0.486573   0.177411   0.058689  -0.042543   0.171701
     7  C    0.403494   0.121373  -0.032712   0.014611   0.004117   0.015195
     8  N   -0.011875   0.020760  -0.012177  -0.002149  -0.000444  -0.000153
     9  C    0.037469  -0.022234   0.003746   0.002295   0.000854  -0.000456
    10  C   -0.071209  -0.005280   0.029418   0.009038  -0.005061   0.003184
    11  C   -0.036665   0.086573  -0.048708   0.012093   0.000757   0.022551
    12  C    0.059142   0.019535   0.013605  -0.015773   0.014603  -0.016264
    13  H    3.103197   0.133209  -0.289688  -0.047085   0.041700  -0.075379
    14  H    0.133209   2.208969  -0.484214  -0.342180   0.134201  -0.038144
    15  H   -0.289688  -0.484214   2.323311   0.188311  -0.299957   0.059325
    16  H   -0.047085  -0.342180   0.188311   2.064240  -0.446553   0.167965
    17  H    0.041700   0.134201  -0.299957  -0.446553   1.912454  -0.197118
    18  H   -0.075379  -0.038144   0.059325   0.167965  -0.197118   1.846989
    19  H    0.048616   0.017057  -0.023916  -0.253833   0.069815  -0.432341
    20  H    0.009771  -0.016854  -0.000560   0.007977   0.004783   0.001858
    21  H   -0.000097  -0.001904   0.001433   0.000288  -0.000011   0.000147
    22  H    0.005365   0.001378   0.000808   0.000182   0.000222  -0.000415
    23  H   -0.077407   0.016149   0.004337   0.000998   0.000153   0.004633
    24  H    0.027775   0.007346  -0.002754  -0.007001  -0.000872  -0.002822
    25  H    0.046624   0.001247   0.000695  -0.001027   0.007447   0.002421
    26  H    0.002672  -0.001756   0.000788   0.006964  -0.002490  -0.001417
    27  H    0.003702  -0.002014  -0.001292   0.000401  -0.000394  -0.000108
    28  O    0.001549   0.000147  -0.000103  -0.000016   0.000000  -0.000035
    29  H   -0.000197   0.000044   0.000021  -0.000009   0.000000   0.000005
    30  H    0.000119   0.000117  -0.000064  -0.000005  -0.000000  -0.000008
    31  O   -0.000122   0.000006  -0.000010   0.000000   0.000001   0.000001
    32  H    0.000036  -0.000044   0.000006   0.000002  -0.000000   0.000000
    33  H   -0.000029   0.000010   0.000001  -0.000000   0.000000   0.000000
    34  O    0.000024   0.000011   0.000007  -0.000000   0.000000  -0.000000
    35  H   -0.000004   0.000001   0.000001  -0.000000  -0.000000   0.000000
    36  H    0.000017   0.000004  -0.000010  -0.000000   0.000001  -0.000000
              19         20         21         22         23         24
     1  C    0.126692   0.069258   0.004211  -0.021797   0.162353   0.124984
     2  C    0.524936   0.118619   0.014865  -0.019817   0.028853   0.167078
     3  N   -0.684932  -0.232535   0.003694   0.001267   0.059864  -0.172285
     4  C   -0.103230   0.032839  -0.001079  -0.003771   0.014896  -0.073178
     5  C   -0.038927   0.008413  -0.000396   0.003446  -0.000331  -0.067783
     6  C   -0.212045   0.161216   0.222625  -0.665166   0.145955   0.054863
     7  C   -0.015326   0.152221   0.025561   0.541403  -1.043422  -0.204774
     8  N    0.001945  -0.026408   0.016846   0.017602   0.091060   0.023799
     9  C   -0.003249  -0.225500  -0.878609  -0.352744  -0.011255  -0.011938
    10  C    0.003761   1.076629   0.321960  -0.179094   0.032349   0.063050
    11  C   -0.008484  -2.347505   0.037535   0.074955   0.013325  -0.049849
    12  C   -0.011176  -0.031378   0.002878  -0.003194   0.004670   0.257855
    13  H    0.048616   0.009771  -0.000097   0.005365  -0.077407   0.027775
    14  H    0.017057  -0.016854  -0.001904   0.001378   0.016149   0.007346
    15  H   -0.023916  -0.000560   0.001433   0.000808   0.004337  -0.002754
    16  H   -0.253833   0.007977   0.000288   0.000182   0.000998  -0.007001
    17  H    0.069815   0.004783  -0.000011   0.000222   0.000153  -0.000872
    18  H   -0.432341   0.001858   0.000147  -0.000415   0.004633  -0.002822
    19  H    2.484589   0.012494  -0.000162  -0.000121  -0.001355   0.006190
    20  H    0.012494   3.316848  -0.014807   0.017819  -0.022407   0.023324
    21  H   -0.000162  -0.014807   2.139237  -0.144190   0.005920  -0.000694
    22  H   -0.000121   0.017819  -0.144190   1.706620  -0.085545  -0.003346
    23  H   -0.001355  -0.022407   0.005920  -0.085545   2.470605   0.008028
    24  H    0.006190   0.023324  -0.000694  -0.003346   0.008028   2.119339
    25  H    0.006814   0.003835   0.000132   0.002283   0.001105  -0.404116
    26  H    0.015188  -0.003446   0.000349  -0.000287   0.001572  -0.545288
    27  H   -0.000615  -0.131696  -0.125129   0.015686  -0.000854   0.000685
    28  O    0.000009   0.001019  -0.001662   0.047432  -0.002139   0.000054
    29  H    0.000008  -0.000071   0.006727  -0.015501   0.001926   0.000100
    30  H    0.000002  -0.000154  -0.001304  -0.005464   0.005080  -0.000020
    31  O   -0.000000  -0.000005   0.001598  -0.014508   0.002650   0.000008
    32  H   -0.000000  -0.000010   0.000295   0.001318  -0.001202  -0.000003
    33  H   -0.000000  -0.000004   0.000043   0.000977   0.000239   0.000001
    34  O    0.000000  -0.000000  -0.000022  -0.001147  -0.000281   0.000001
    35  H    0.000000   0.000000  -0.000005   0.000125   0.000011   0.000000
    36  H    0.000000   0.000000  -0.000009   0.000012  -0.000107  -0.000000
              25         26         27         28         29         30
     1  C   -0.026123  -0.055541  -0.010704  -0.001921   0.000459  -0.000490
     2  C   -0.273885  -0.056835   0.014382  -0.002081   0.002973   0.001209
     3  N    0.221007  -0.262021  -0.004127   0.000361  -0.000042   0.000140
     4  C    0.011982   0.030636   0.001242   0.000128   0.000108   0.000042
     5  C    0.059076   0.048022   0.005303  -0.000156  -0.000070  -0.000027
     6  C    0.001094   0.116645  -0.396282  -0.103593   0.012722  -0.012948
     7  C    0.078292   0.024586   0.075558   0.090799  -0.013033   0.006368
     8  N   -0.009272  -0.003092  -0.033904  -0.178108   0.008145   0.002438
     9  C    0.003561   0.004041   0.529447   0.021469  -0.010364  -0.003309
    10  C   -0.001005  -0.004485  -1.312745  -0.050376   0.011027  -0.004296
    11  C    0.024780  -0.039936   0.848077   0.049350  -0.004269   0.011547
    12  C    0.140997   0.355013  -0.007692  -0.000428  -0.000031  -0.000066
    13  H    0.046624   0.002672   0.003702   0.001549  -0.000197   0.000119
    14  H    0.001247  -0.001756  -0.002014   0.000147   0.000044   0.000117
    15  H    0.000695   0.000788  -0.001292  -0.000103   0.000021  -0.000064
    16  H   -0.001027   0.006964   0.000401  -0.000016  -0.000009  -0.000005
    17  H    0.007447  -0.002490  -0.000394   0.000000   0.000000  -0.000000
    18  H    0.002421  -0.001417  -0.000108  -0.000035   0.000005  -0.000008
    19  H    0.006814   0.015188  -0.000615   0.000009   0.000008   0.000002
    20  H    0.003835  -0.003446  -0.131696   0.001019  -0.000071  -0.000154
    21  H    0.000132   0.000349  -0.125129  -0.001662   0.006727  -0.001304
    22  H    0.002283  -0.000287   0.015686   0.047432  -0.015501  -0.005464
    23  H    0.001105   0.001572  -0.000854  -0.002139   0.001926   0.005080
    24  H   -0.404116  -0.545288   0.000685   0.000054   0.000100  -0.000020
    25  H    1.547512  -0.276402  -0.001474   0.000024  -0.000035   0.000017
    26  H   -0.276402   1.878733   0.000348  -0.000044  -0.000005  -0.000016
    27  H   -0.001474   0.000348   2.118673  -0.001035  -0.000348   0.000239
    28  O    0.000024  -0.000044  -0.001035   7.930657   0.362890   0.321859
    29  H   -0.000035  -0.000005  -0.000348   0.362890   0.606383  -0.110913
    30  H    0.000017  -0.000016   0.000239   0.321859  -0.110913   0.526921
    31  O    0.000001   0.000000  -0.000006  -0.042924   0.004114   0.013404
    32  H   -0.000000   0.000001   0.000006   0.002604  -0.000461  -0.005911
    33  H    0.000000   0.000000   0.000001   0.001576  -0.000215  -0.003908
    34  O   -0.000000  -0.000000   0.000001   0.000251   0.000643  -0.002501
    35  H    0.000000  -0.000000  -0.000000   0.000134  -0.000023  -0.000428
    36  H   -0.000000   0.000000  -0.000000  -0.000020   0.000012   0.000033
              31         32         33         34         35         36
     1  C    0.000117  -0.000037   0.000035   0.000006   0.000004  -0.000002
     2  C   -0.000061   0.000175  -0.000021   0.000014  -0.000003  -0.000007
     3  N   -0.000001  -0.000030   0.000005  -0.000000   0.000001  -0.000001
     4  C   -0.000002  -0.000007   0.000000   0.000000   0.000000   0.000000
     5  C    0.000009   0.000015   0.000001  -0.000001  -0.000000  -0.000001
     6  C    0.000879   0.000583   0.000503   0.000310   0.000008   0.000013
     7  C   -0.000271  -0.001436   0.000685   0.000259  -0.000013  -0.000067
     8  N   -0.002170   0.001191   0.000084   0.000236  -0.000013   0.000027
     9  C    0.004491   0.000635  -0.001136   0.000155  -0.000014   0.000012
    10  C    0.001585   0.000677   0.000084   0.000050  -0.000001  -0.000012
    11  C   -0.000318  -0.000931  -0.000205  -0.000017   0.000010   0.000016
    12  C    0.000001   0.000008   0.000000  -0.000000  -0.000000  -0.000000
    13  H   -0.000122   0.000036  -0.000029   0.000024  -0.000004   0.000017
    14  H    0.000006  -0.000044   0.000010   0.000011   0.000001   0.000004
    15  H   -0.000010   0.000006   0.000001   0.000007   0.000001  -0.000010
    16  H    0.000000   0.000002  -0.000000  -0.000000  -0.000000  -0.000000
    17  H    0.000001  -0.000000   0.000000   0.000000  -0.000000   0.000001
    18  H    0.000001   0.000000   0.000000  -0.000000   0.000000  -0.000000
    19  H   -0.000000  -0.000000  -0.000000   0.000000   0.000000   0.000000
    20  H   -0.000005  -0.000010  -0.000004  -0.000000   0.000000   0.000000
    21  H    0.001598   0.000295   0.000043  -0.000022  -0.000005  -0.000009
    22  H   -0.014508   0.001318   0.000977  -0.001147   0.000125   0.000012
    23  H    0.002650  -0.001202   0.000239  -0.000281   0.000011  -0.000107
    24  H    0.000008  -0.000003   0.000001   0.000001   0.000000  -0.000000
    25  H    0.000001  -0.000000   0.000000  -0.000000   0.000000  -0.000000
    26  H    0.000000   0.000001   0.000000  -0.000000  -0.000000   0.000000
    27  H   -0.000006   0.000006   0.000001   0.000001  -0.000000  -0.000000
    28  O   -0.042924   0.002604   0.001576   0.000251   0.000134  -0.000020
    29  H    0.004114  -0.000461  -0.000215   0.000643  -0.000023   0.000012
    30  H    0.013404  -0.005911  -0.003908  -0.002501  -0.000428   0.000033
    31  O    7.712586   0.333420   0.365247  -0.036569   0.002405   0.000850
    32  H    0.333420   0.559253  -0.102996   0.007010  -0.000631  -0.004039
    33  H    0.365247  -0.102996   0.604462   0.004674  -0.000064  -0.000993
    34  O   -0.036569   0.007010   0.004674   7.670880   0.344858   0.349701
    35  H    0.002405  -0.000631  -0.000064   0.344858   0.549080  -0.067753
    36  H    0.000850  -0.004039  -0.000993   0.349701  -0.067753   0.576054
 Mulliken charges:
               1
     1  C    0.923271
     2  C    0.773054
     3  N   -0.432313
     4  C    1.189445
     5  C    0.670303
     6  C    1.258314
     7  C    0.625367
     8  N   -0.056978
     9  C    0.748343
    10  C    0.184585
    11  C    1.166442
    12  C    0.839806
    13  H   -0.799707
    14  H   -0.442045
    15  H   -0.375955
    16  H   -0.330939
    17  H   -0.282293
    18  H   -0.381004
    19  H   -0.528407
    20  H   -0.965585
    21  H   -0.636267
    22  H    0.077206
    23  H   -0.830426
    24  H   -0.337755
    25  H   -0.167610
    26  H   -0.232496
    27  H   -0.583335
    28  O   -0.447671
    29  H    0.137280
    30  H    0.262298
    31  O   -0.346405
    32  H    0.210502
    33  H    0.130942
    34  O   -0.338552
    35  H    0.172313
    36  H    0.146271
 Sum of Mulliken charges =   1.00000
 Mulliken charges with hydrogens summed into heavy atoms:
               1
     1  C    0.105272
     2  C   -0.026653
     3  N   -0.432313
     4  C    0.280035
     5  C    0.057071
     6  C    1.258314
     7  C   -0.205059
     8  N    0.020228
     9  C    0.112076
    10  C   -0.398750
    11  C    0.200856
    12  C    0.101945
    28  O   -0.048094
    31  O   -0.004960
    34  O   -0.019968
 Electronic spatial extent (au):  <R**2>=           6919.8473
 Charge=              1.0000 electrons
 Dipole moment (field-independent basis, Debye):
    X=             -6.5417    Y=             -0.5017    Z=              0.3269  Tot=              6.5690
 Quadrupole moment (field-independent basis, Debye-Ang):
   XX=             -6.5462   YY=            -58.0150   ZZ=            -82.2124
   XY=            -13.4840   XZ=             -5.7302   YZ=              4.2963
 Traceless Quadrupole moment (field-independent basis, Debye-Ang):
   XX=             42.3783   YY=             -9.0904   ZZ=            -33.2878
   XY=            -13.4840   XZ=             -5.7302   YZ=              4.2963
 Octapole moment (field-independent basis, Debye-Ang**2):
  XXX=           -475.3198  YYY=             25.2780  ZZZ=             11.6773  XYY=           -122.8786
  XXY=            153.6053  XXZ=             37.6644  XZZ=            -38.3871  YZZ=             -8.8248
  YYZ=            -14.6017  XYZ=             -5.7093
 Hexadecapole moment (field-independent basis, Debye-Ang**3):
 XXXX=          -2937.8019 YYYY=          -1054.4314 ZZZZ=           -504.9090 XXXY=          -1049.1700
 XXXZ=           -204.8480 YYYX=           -382.5481 YYYZ=             49.7837 ZZZX=            -50.9583
 ZZZY=             -7.2345 XXYY=           -543.8677 XXZZ=          -1008.5655 YYZZ=           -273.3827
 XXYZ=             75.2217 YYXZ=            -50.2977 ZZXY=            -22.7861
 N-N= 9.972270210369D+02 E-N=-3.679035135088D+03  KE= 7.239899871085D+02
 Calling FoFJK, ICntrl=      2127 FMM=F ISym2X=0 I1Cent= 0 IOpClX= 0 NMat=1 NMatS=1 NMatT=0.
 ***** Axes restored to original set *****
 -------------------------------------------------------------------
 Center     Atomic                   Forces (Hartrees/Bohr)
 Number     Number              X              Y              Z
 -------------------------------------------------------------------
      1        6          -0.000098248    0.000061525    0.000030984
      2        6           0.000163472    0.000034369   -0.000161212
      3        7          -0.000130680   -0.000134759    0.000040575
      4        6           0.000064967    0.000166175    0.000039875
      5        6           0.000023337   -0.000040656   -0.000018307
      6        6           0.000096100    0.000130115   -0.000041669
      7        6           0.000206878    0.000221592   -0.000132850
      8        7          -0.000823381    0.000241314   -0.000322148
      9        6           0.000076639   -0.000293207    0.000219185
     10        6          -0.000166482   -0.000032004   -0.000003723
     11        6          -0.000016001   -0.000021375   -0.000000308
     12        6           0.000017169    0.000034055   -0.000068488
     13        1          -0.000030983   -0.000005575    0.000016310
     14        1           0.000007811    0.000005453    0.000036420
     15        1           0.000003186   -0.000016624    0.000008597
     16        1          -0.000006180    0.000005192   -0.000005695
     17        1          -0.000031692   -0.000020075   -0.000001686
     18        1          -0.000015866   -0.000039894    0.000038574
     19        1          -0.000018353    0.000002877    0.000006067
     20        1           0.000038277    0.000018670   -0.000010706
     21        1           0.000061029   -0.000088117    0.000029072
     22        1           0.001803325   -0.000558967    0.000629359
     23        1           0.000114334    0.000030914   -0.000015745
     24        1          -0.000014698   -0.000040585   -0.000016883
     25        1           0.000009376   -0.000027073    0.000019852
     26        1          -0.000019686    0.000004768    0.000003243
     27        1          -0.000012715   -0.000007266    0.000003164
     28        8          -0.002750406    0.002153333    0.001391986
     29        1          -0.000012653   -0.000239632   -0.000420581
     30        1           0.003324412   -0.003082930   -0.002634837
     31        8          -0.003677089    0.014404062   -0.002998228
     32        1           0.003934366   -0.010870951    0.003789595
     33        1          -0.001558925   -0.000546913    0.000979564
     34        8          -0.002900331   -0.021135701    0.002903278
     35        1          -0.002845200    0.009804143   -0.005860757
     36        1           0.005184890    0.009883747    0.002528121
 -------------------------------------------------------------------
 Cartesian Forces:  Max     0.021135701 RMS     0.003280058

 GradGradGradGradGradGradGradGradGradGradGradGradGradGradGradGradGradGrad
 Berny optimization.
 FormGI is forming the generalized inverse of G from B-inverse, IUseBI=4.
 Internal  Forces:  Max     0.013138416 RMS     0.001579811
 Search for a local minimum.
 Step number   1 out of a maximum of  200
 All quantities printed in internal units (Hartrees-Bohrs-Radians)
 Mixed Optimization -- RFO/linear search
 Second derivative matrix not updated -- first step.
 ITU=  0
     Eigenvalues ---    0.00230   0.00230   0.00230   0.00230   0.00230
     Eigenvalues ---    0.00230   0.00230   0.00230   0.00230   0.00234
     Eigenvalues ---    0.00336   0.00630   0.00691   0.00761   0.00922
     Eigenvalues ---    0.01013   0.01545   0.01916   0.02130   0.02171
     Eigenvalues ---    0.02226   0.02242   0.02293   0.02349   0.02375
     Eigenvalues ---    0.02434   0.02580   0.03518   0.04557   0.04825
     Eigenvalues ---    0.05025   0.05215   0.05539   0.05990   0.06320
     Eigenvalues ---    0.06370   0.06838   0.06950   0.06957   0.06988
     Eigenvalues ---    0.07271   0.07586   0.08367   0.08582   0.09407
     Eigenvalues ---    0.10408   0.12963   0.15376   0.15844   0.15994
     Eigenvalues ---    0.15998   0.16000   0.16000   0.16000   0.16000
     Eigenvalues ---    0.16000   0.16000   0.16000   0.16000   0.16000
     Eigenvalues ---    0.16000   0.16000   0.18445   0.20636   0.22000
     Eigenvalues ---    0.22000   0.23455   0.24989   0.26448   0.26728
     Eigenvalues ---    0.28874   0.31324   0.32520   0.32705   0.32777
     Eigenvalues ---    0.33873   0.34068   0.34097   0.34129   0.34150
     Eigenvalues ---    0.34160   0.34262   0.34749   0.34807   0.35024
     Eigenvalues ---    0.35103   0.35140   0.35641   0.38076   0.40041
     Eigenvalues ---    0.43054   0.43746   0.46875   0.48259   0.51463
     Eigenvalues ---    0.52676   0.52843   0.54032   0.55224   0.55226
     Eigenvalues ---    0.55545   0.56075
 RFO step:  Lambda=-1.70789757D-03 EMin= 2.30000000D-03
 Linear search not attempted -- first point.
 Iteration  1 RMS(Cart)=  0.14933020 RMS(Int)=  0.00400418
 Iteration  2 RMS(Cart)=  0.01230148 RMS(Int)=  0.00056692
 Iteration  3 RMS(Cart)=  0.00002799 RMS(Int)=  0.00056669
 Iteration  4 RMS(Cart)=  0.00000006 RMS(Int)=  0.00056669
 Variable       Old X    -DE/DX   Delta X   Delta X   Delta X     New X
                                 (Linear)    (Quad)   (Total)
    R1        2.93171  -0.00003   0.00000  -0.00013  -0.00012   2.93158
    R2        2.92194   0.00002   0.00000   0.00013   0.00013   2.92208
    R3        2.07215  -0.00003   0.00000  -0.00008  -0.00008   2.07208
    R4        2.07078   0.00002   0.00000   0.00005   0.00005   2.07082
    R5        2.74729   0.00006   0.00000   0.00011   0.00011   2.74740
    R6        2.85399   0.00006   0.00000   0.00019   0.00019   2.85418
    R7        2.09903   0.00001   0.00000   0.00003   0.00003   2.09906
    R8        2.76096  -0.00010   0.00000  -0.00032  -0.00032   2.76064
    R9        2.74254  -0.00007   0.00000  -0.00018  -0.00018   2.74236
   R10        2.88688   0.00002   0.00000   0.00013   0.00013   2.88701
   R11        2.09572   0.00006   0.00000   0.00017   0.00017   2.09589
   R12        2.07166   0.00002   0.00000   0.00005   0.00005   2.07171
   R13        2.07060   0.00001   0.00000   0.00003   0.00003   2.07063
   R14        2.06889   0.00003   0.00000   0.00009   0.00009   2.06898
   R15        2.61684   0.00006   0.00000   0.00012   0.00013   2.61696
   R16        2.64757  -0.00009   0.00000  -0.00015  -0.00015   2.64743
   R17        2.54101  -0.00042   0.00000  -0.00079  -0.00079   2.54022
   R18        2.05636  -0.00001   0.00000  -0.00004  -0.00004   2.05632
   R19        2.53328  -0.00039   0.00000  -0.00072  -0.00072   2.53256
   R20        1.98197   0.00061   0.00000   0.00152   0.00150   1.98347
   R21        2.61643   0.00011   0.00000   0.00023   0.00023   2.61666
   R22        2.05448   0.00000   0.00000   0.00001   0.00001   2.05449
   R23        2.63084  -0.00013   0.00000  -0.00022  -0.00023   2.63062
   R24        2.05508  -0.00001   0.00000  -0.00002  -0.00002   2.05506
   R25        2.05990  -0.00003   0.00000  -0.00008  -0.00008   2.05982
   R26        2.07544  -0.00004   0.00000  -0.00011  -0.00011   2.07533
   R27        2.09445   0.00003   0.00000   0.00010   0.00010   2.09455
   R28        2.07113   0.00002   0.00000   0.00006   0.00006   2.07119
   R29        3.07569  -0.00138   0.00000  -0.01572  -0.01570   3.05999
   R30        1.81351  -0.00044   0.00000  -0.00079  -0.00079   1.81272
   R31        1.85116   0.00248   0.00000   0.00480   0.00478   1.85595
   R32        3.27404  -0.00276   0.00000  -0.03872  -0.03871   3.23533
   R33        1.81631   0.01314   0.00000   0.02375   0.02373   1.84004
[...]
 .00000156,-0.00001287,-0.00000521,-0.00001698,-0.00004272,-0.00013880,
 -0.00315614,0.00061286,-0.00190437,-0.00011543,-0.00002540,-0.00006778
 ,0.00000527,0.00002047,-0.00000081,-0.00000688,-0.00001070,0.00001021,
 0.00000778,-0.00000077,0.00000534,0.00004813,-0.00002555,-0.00000875,0
 .01034743,-0.01097247,-0.00156719,0.00007259,0.00045618,0.00076879,-0.
 00000940,0.00424010,-0.00939180,-0.22507874,-0.22072834,0.23476066,0.0
 0000435,0.00001184,-0.00000558,-0.00004609,0.00001912,0.00001029,0.000
 04647,-0.00001368,-0.00001608,-0.00001387,-0.00001780,-0.00000145,-0.0
 0001309,-0.00000193,-0.00000347,-0.00000471,-0.00007199,0.00004448,-0.
 00006583,0.00004569,-0.00004776,0.00004342,0.00000356,-0.00001055,0.00
 002942,0.00001780,-0.00000902,-0.00002281,-0.00000599,0.00000253,0.000
 01105,0.00003996,-0.00002053,0.00000186,0.00000913,0.00002133,0.000003
 81,-0.00000568,0.00001326,-0.00000345,0.00000516,-0.00001055,-0.000007
 14,-0.00001625,0.00000462,0.00000541,-0.00000384,0.00000163,0.00000318
 ,0.00000368,-0.00000123,-0.00000010,0.00000724,-0.00000465,0.00000816,
 -0.00000405,-0.00000226,-0.00000438,-0.00000202,0.00000385,0.00000091,
 0.00000659,0.00000686,0.00000192,0.00010821,-0.00000247,-0.00005196,0.
 00002525,0.00004144,-0.00000223,0.00000680,0.00000318,-0.00000310,0.00
 000336,-0.00000435,0.00000807,-0.00000304,-0.00000061,-0.00000020,0.00
 000359,0.00000114,-0.00078427,0.00045906,0.00155775,-0.00019422,0.0002
 1812,0.00023666,0.00118056,0.00015854,-0.00361442,-0.07018896,0.122225
 33,-0.02067008,0.06898419,-0.00005664,0.00006302,0.00003829,0.00011585
 ,0.00007156,-0.00014956,-0.00014103,-0.00011426,0.00005409,0.00006551,
 0.00009046,0.00001008,0.00002249,-0.00002759,-0.00001090,0.00007904,0.
 00006299,0.00000509,0.00017699,0.00027173,-0.00016808,-0.00087523,0.00
 027732,-0.00034464,0.00010794,-0.00030586,0.00021463,-0.00020608,-0.00
 003378,-0.00000603,0.00003496,0.00001145,-0.00001608,0.00001462,0.0000
 3134,-0.00006454,-0.00002467,-0.00000963,0.00002658,0.00000549,0.00000
 440,0.00003183,-0.00000220,-0.00001754,0.00000201,-0.00000501,0.000005
 15,-0.00000105,-0.00002982,-0.00001219,-0.00000097,-0.00000915,-0.0000
 2966,0.00002656,-0.00001943,-0.00000106,0.00000253,0.00002026,0.000011
 74,-0.00000796,0.00006866,-0.00009865,0.00002212,0.00191846,-0.0005248
 7,0.00059260,0.00006863,0.00004713,-0.00001057,-0.00000743,-0.00003059
 ,-0.00001311,0.00000388,-0.00002104,0.00001455,-0.00001570,0.00000257,
 0.00000130,-0.00000853,-0.00000580,0.00000004,-0.00335672,0.00252068,0
 .00184765,0.00012379,-0.00021912,-0.00046302,0.00460322,-0.00491547,-0
 .00338532,0.07916010,-0.39744798,0.13465333,-0.08422464,0.40678059,0.0
 0001629,-0.00001511,-0.00000719,-0.00003594,-0.00003204,0.00006954,0.0
 0004274,0.00003372,-0.00004497,-0.00001641,-0.00003053,0.00000620,-0.0
 0000976,0.00000500,0.00000002,-0.00002630,-0.00000559,-0.00001775,-0.0
 0006382,-0.00012293,0.00008740,0.00031912,-0.00010999,0.00015427,-0.00
 002678,0.00011914,-0.00008311,0.00007405,0.00001022,0.00000179,-0.0000
 1992,-0.00000721,0.00000657,-0.00000199,-0.00000887,0.00004209,0.00000
 961,0.00000620,-0.00001621,-0.00000394,0.00000761,-0.00001782,-0.00000
 242,-0.00000132,0.00000801,0.00000143,-0.00000027,-0.00000076,0.000008
 51,0.00000317,0.00000118,0.00000232,0.00001111,-0.00001265,0.00000737,
 -0.00000102,-0.00000216,-0.00000910,-0.00000115,0.00000527,-0.00002214
 ,0.00004009,0.00000133,-0.00062992,0.00017851,-0.00026492,-0.00000540,
 -0.00001392,0.00002896,0.00000025,0.00000781,0.00000653,0.00000021,0.0
 0001328,-0.00001045,0.00000591,-0.00000080,-0.00000260,0.00000283,0.00
 000511,0.00000394,0.00384476,-0.00204174,-0.00352915,0.00027778,-0.000
 53772,0.00021796,-0.00526120,0.00120968,0.00606422,-0.00203541,0.11346
 517,-0.06328439,0.01070388,-0.13084518,0.07426864,0.00000789,-0.000004
 33,-0.00000344,-0.00003009,-0.00000164,0.00003030,0.00003189,0.0000052
 0,-0.00002220,-0.00001148,-0.00001524,-0.00000036,-0.00000785,0.000002
 78,-0.00000172,-0.00002343,-0.00000756,-0.00000299,-0.00001397,-0.0000
 2945,0.00002863,0.00004196,-0.00003693,0.00001249,-0.00005206,0.000024
 93,-0.00002629,0.00004072,0.00002284,-0.00001830,-0.00001497,-0.000002
 81,0.00000556,-0.00000035,0.00000257,0.00002121,0.00000643,0.00000072,
 -0.00000208,-0.00000312,0.00000422,-0.00000996,-0.00000118,-0.00000406
 ,0.00000340,0.00000180,-0.00000171,0.00000090,0.00000414,0.00000250,-0
 .00000039,0.00000087,0.00000614,-0.00000518,0.00000589,-0.00000221,-0.
 00000126,-0.00000436,0.00000171,0.00000226,-0.00001532,0.00005495,0.00
 002154,-0.00008251,-0.00000320,0.00007870,0.00000211,0.00000085,0.0000
 0727,-0.00000138,0.00000550,0.00000384,-0.00000112,0.00000497,-0.00000
 505,0.00000595,-0.00000160,-0.00000097,-0.00000335,0.00000765,0.000002
 46,0.00050658,0.00049705,0.00021702,-0.00011831,0.00028846,0.00009201,
 -0.00174274,-0.00195938,-0.00005011,-0.34220493,-0.13365929,0.23823042
 ,0.00623761,0.00613595,-0.00657949,0.33809054,-0.00000769,0.00001471,0
 .00000299,-0.00000004,0.00001108,-0.00001819,-0.00000205,-0.00002507,0
 .00000612,0.00000613,0.00000894,0.00000011,-0.00000095,-0.00000393,-0.
 00000420,0.00005501,-0.00004475,0.00004268,-0.00009144,-0.00001710,-0.
 00001015,0.00019777,-0.00000590,0.00007327,0.00013243,0.00008696,-0.00
 002087,-0.00007262,-0.00004638,0.00001547,0.00002353,0.00004315,-0.000
 02438,0.00000386,0.00001000,-0.00000353,-0.00000335,-0.00000564,0.0000
 0933,-0.00000058,0.00000374,0.00000159,-0.00000192,-0.00000826,0.00000
 335,0.00000141,-0.00000043,0.00000092,-0.00000374,-0.00000105,-0.00000
 015,-0.00000111,-0.00000240,0.00000322,0.00000035,-0.00000152,-0.00000
 049,0.00000007,-0.00000045,0.00000014,0.00004658,-0.00002556,-0.000019
 59,-0.00032781,0.00012215,-0.00024264,-0.00002597,0.00000613,0.0000109
 9,-0.00000325,-0.00000138,-0.00000164,-0.00000093,-0.00000363,0.000001
 01,0.00000122,-0.00000027,-0.00000026,0.00001672,-0.00000289,0.0000035
 8,0.00206910,-0.00432708,-0.00158306,0.00039659,-0.00000463,-0.0002183
 5,-0.00141990,0.00755085,0.00162541,-0.09297071,-0.09385160,0.08526003
 ,-0.03642649,-0.00856317,0.02251542,0.12706460,0.10038641,-0.00000323,
 -0.00000469,0.00001004,0.00000811,-0.00000394,0.00001304,-0.00001210,-
 0.00000011,-0.00002292,0.00000593,0.00000125,0.00000881,0.00000014,-0.
 00000363,-0.00000156,-0.00002894,0.00003693,-0.00003128,0.00006659,0.0
 0001069,0.00000822,-0.00015855,0.00003951,-0.00006883,-0.00004516,-0.0
 0004104,0.00002864,0.00001635,0.00000933,-0.00002166,-0.00002048,-0.00
 002158,0.00001600,0.00000271,0.00000093,0.00001519,0.00000049,0.000004
 08,-0.00000980,-0.00000048,0.00000751,-0.00000381,-0.00000054,-0.00000
 122,0.00000416,-0.00000252,0.00000273,-0.00000156,-0.00000065,-0.00000
 123,0.00000078,-0.00000068,0.00000018,-0.00000363,-0.00000078,-0.00000
 044,-0.00000032,-0.00000224,0.00000272,0.00000356,0.00000268,0.0000184
 1,0.00004557,0.00038227,-0.00018372,0.00020711,0.00002590,0.00000304,0
 .00000515,-0.00000146,-0.00000326,0.00000165,0.00000154,0.00000508,-0.
 00000447,-0.00000069,0.00000001,-0.00000118,-0.00001054,0.00000897,0.0
 0000636,-0.00024832,-0.00087392,-0.00002950,0.00038105,0.00004319,-0.0
 0019438,0.00122590,0.00159002,-0.00121337,0.21750946,0.10573301,-0.161
 79384,0.01285377,0.00124683,-0.00699555,-0.23165129,-0.10732297,0.1698
 0864,0.00000268,-0.00003132,0.00000988,0.00005503,-0.00004459,0.000012
 37,-0.00005324,0.00004409,0.00000725,0.00001365,0.00000846,0.00000741,
 0.00001521,0.00000235,0.00000590,-0.00002951,0.00008201,-0.00006060,0.
 00009512,-0.00004594,0.00005122,-0.00010254,0.00001594,-0.00000776,-0.
 00003801,-0.00002981,0.00000622,0.00003997,0.00000840,0.00000227,-0.00
 001599,-0.00005224,0.00002752,-0.00000388,-0.00002245,-0.00001541,-0.0
 0000423,0.00001064,-0.00002847,0.00000275,-0.00000269,0.00000688,0.000
 00695,0.00002280,-0.00000349,-0.00000798,0.00000725,-0.00000384,0.0000
 0168,-0.00000418,0.00000307,0.00000136,-0.00000566,-0.00000116,-0.0000
 1007,0.00000741,0.00000180,0.00000288,-0.00000066,-0.00000138,-0.00000
 472,-0.00001403,0.00000077,0.00011813,-0.00011753,0.00004688,0.0000434
 3,-0.00003981,-0.00002772,0.00000511,-0.00000639,-0.00000232,0.0000048
 2,0.00000112,0.00000267,-0.00001053,0.00000419,0.00000026,-0.00000337,
 -0.00000234,-0.00000101,-0.00003002,0.00038502,0.00009172,-0.00011415,
 -0.00007590,-0.00003296,0.00004490,-0.00032696,-0.00017791,0.00298613,
 0.00538290,-0.00074337,-0.00492024,-0.00352166,-0.00249211,-0.00080157
 ,0.00127332,-0.00028584,0.28543183,0.00003739,-0.00004175,-0.00002363,
 -0.00007733,-0.00004225,0.00009325,0.00009651,0.00007617,-0.00003057,-
 0.00004556,-0.00006225,-0.00000639,-0.00001598,0.00001617,0.00000702,-
 0.00005240,-0.00005529,0.00000842,-0.00011727,-0.00015713,0.00008723,0
 .00055068,-0.00017035,0.00021822,-0.00005501,0.00018701,-0.00013732,0.
 00011957,0.00001846,0.00001093,-0.00001756,0.00000132,0.00000352,-0.00
 000965,-0.00002178,0.00003876,0.00001515,0.00000413,-0.00001497,-0.000
 00380,-0.00000147,-0.00002140,-0.00000070,0.00000959,-0.00000104,0.000
 00367,-0.00000333,0.00000078,0.00002043,0.00000864,0.00000082,0.000006
 16,0.00001988,-0.00001850,0.00001288,0.00000066,-0.00000197,-0.0000138
 7,-0.00000914,0.00000566,-0.00003936,0.00005567,-0.00001606,-0.0011816
 9,0.00034170,-0.00039954,-0.00005731,-0.00002748,0.00000527,0.00000576
 ,0.00002095,0.00000746,-0.00000318,0.00001251,-0.00000850,0.00000987,-
 0.00000156,-0.00000063,0.00000586,0.00000342,-0.00000100,0.00188808,-0
 .00138935,-0.00106074,-0.00000824,0.00011667,0.00021898,-0.00226557,0.
 00198536,0.00206735,0.00479459,-0.01468390,0.00566427,-0.00350073,-0.0
 0338376,-0.00152334,0.00114666,-0.00050147,-0.00056238,-0.07062720,0.4
 6451958,-0.00000613,0.00000466,-0.00000185,0.00001061,0.00002777,-0.00
 005976,-0.00001264,-0.00001912,0.00005335,0.00000272,0.00001882,-0.000
 01654,0.00000593,0.00000141,0.00000262,0.00002982,-0.00001462,0.000026
 56,0.00000439,0.00006324,-0.00005135,-0.00006982,0.00003729,-0.0000160
 2,0.00003131,-0.00004475,0.00002674,-0.00004410,-0.00001013,0.00000766
 ,0.00001737,0.00001253,-0.00001153,-0.00000094,0.00000732,-0.00004534,
 -0.00000436,-0.00000814,0.00001918,0.00000298,-0.00001307,0.00001484,0
 .00000417,0.00000567,-0.00001307,0.00000020,-0.00000253,0.00000248,-0.
 00000333,-0.00000030,-0.00000256,-0.00000026,-0.00000707,0.00001201,-0
 .00000379,0.00000086,0.00000246,0.00000657,-0.00000085,-0.00000556,0.0
 0000893,-0.00002435,-0.00001494,0.00014694,-0.00004698,-0.00001572,-0.
 00000523,0.00000662,-0.00003938,0.00000096,-0.00000139,-0.00000453,-0.
 00000186,-0.00001478,0.00001192,-0.00000308,0.00000051,0.00000369,0.00
 000215,-0.00000698,-0.00000525,-0.00069348,0.00038527,0.00091051,-0.00
 006418,0.00021279,-0.00018026,0.00112784,-0.00080631,-0.00133666,-0.00
 064994,0.00634606,0.00350723,-0.00238801,-0.00228066,-0.00892824,-0.00
 025591,-0.00050685,0.00003137,0.30445857,0.15757114,0.46185570,-0.0000
 0151,0.00000926,-0.00000369,-0.00002050,0.00002006,-0.00001154,0.00002
 002,-0.00001842,0.00000470,-0.00000592,-0.00000058,-0.00000587,-0.0000
 0447,0.00000063,-0.00000178,0.00001526,-0.00003022,0.00002461,-0.00003
 543,0.00001669,-0.00001773,0.00005230,-0.00000950,0.00001241,0.0000158
 1,0.00001216,-0.00000435,-0.00001481,-0.00000349,-0.00000029,0.0000067
 7,0.00001817,-0.00001121,0.00000085,0.00000990,-0.00000111,0.00000162,
 -0.00000534,0.00001258,-0.00000024,-0.00000079,-0.00000047,-0.00000073
 ,-0.00000616,-0.00000072,0.00000255,-0.00000293,0.00000193,-0.00000095
 ,0.00000159,-0.00000141,-0.00000041,0.00000124,0.00000211,0.00000354,-
 0.00000278,-0.00000009,-0.00000053,0.00000051,-0.00000006,0.00000112,0
 .00000473,-0.00000237,-0.00008043,0.00004632,-0.00004143,-0.00001498,0
 .00001119,-0.00000217,-0.00000201,0.00000276,0.00000034,-0.00000233,-0
 .00000282,0.00000086,0.00000405,-0.00000163,0.00000080,0.00000169,0.00
 000052,0.00000016,0.00002659,-0.00018315,0.00005870,0.00004144,0.00009
 429,-0.00001713,-0.00001295,0.00011123,-0.00002926,0.00028858,-0.00142
 432,0.00003456,-0.00074422,0.00159424,0.00005295,0.00017282,0.00011466
 ,0.00012509,-0.25568216,0.08004486,-0.26192977,0.25981070,-0.00000518,
 0.00000724,0.00000325,0.00000848,0.00000488,-0.00001039,-0.00001387,-0
 .00001388,-0.00000026,0.00000829,0.00000982,0.00000099,0.00000207,-0.0
 0000208,-0.00000153,0.00000920,0.00000744,-0.00000114,0.00000836,0.000
 01597,-0.00000664,-0.00006683,0.00001739,-0.00002889,0.00000687,-0.000
 01726,0.00001573,-0.00001479,-0.00000224,-0.00000328,0.00000185,0.0000
 0035,0.00000020,0.00000242,0.00000527,-0.00000108,-0.00000153,0.000000
 21,0.00000194,0.00000008,0.00000065,0.00000200,0.00000022,-0.00000231,
 0.00000057,-0.00000041,0.00000037,-0.00000013,-0.00000318,-0.00000153,
 -0.00000030,-0.00000093,-0.00000274,0.00000290,-0.00000147,-0.00000027
 ,0.00000028,0.00000163,0.00000190,-0.00000045,0.00000463,-0.00000159,0
 .00000494,0.00014055,-0.00003330,0.00006092,0.00000796,0.00000571,0.00
 000595,-0.00000186,-0.00000361,0.00000003,0.00000091,-0.00000061,0.,-0
 .00000082,0.00000030,-0.00000041,-0.00000016,0.00000035,0.00000118,-0.
 00006204,-0.00000930,-0.00021720,0.00009405,-0.00009630,0.00002641,-0.
 00008115,0.00007590,0.00029371,-0.00055929,-0.00322457,-0.00017833,0.0
 0181581,0.00544938,0.00102541,0.00034292,-0.00035836,0.00030894,0.1133
 7666,-0.07816397,0.09730513,-0.08742197,0.06927573,0.00000089,0.000002
 09,0.00000036,-0.00000523,-0.00000831,0.00002065,0.00000431,0.00000215
 ,-0.00002345,0.00000048,-0.00000621,0.00000723,-0.00000234,-0.00000121
 ,-0.00000121,-0.00000895,0.00000281,-0.00000704,-0.00000132,-0.0000133
 1,0.00001240,0.00001475,-0.00001042,-0.00000163,-0.00000958,0.00001217
 ,-0.00000420,0.00001216,0.00000185,-0.00000320,-0.00000476,-0.00000274
 ,0.00000284,0.00000138,-0.00000106,0.00002071,0.00000148,0.00000303,-0
 .00000546,-0.00000075,0.00000466,-0.00000551,-0.00000188,-0.00000363,0
 .00000491,0.00000030,0.00000085,-0.00000108,0.00000039,-0.00000016,0.0
 0000091,-0.00000028,0.00000272,-0.00000441,0.00000154,-0.00000065,-0.0
 0000088,-0.00000231,0.00000045,0.00000275,-0.00000306,0.00000743,0.000
 00670,-0.00002766,0.00001764,0.00001704,-0.00000122,0.00000361,0.00001
 833,-0.00000109,-0.00000022,0.00000211,0.00000082,0.00000665,-0.000005
 39,0.00000142,-0.00000027,-0.00000165,-0.00000117,0.00000265,0.0000025
 0,0.00015447,-0.00012481,-0.00027747,0.00002160,-0.00007086,0.00008956
 ,-0.00026974,0.00029950,0.00035673,0.00038290,-0.00114583,0.00020628,-
 0.00052999,0.00193779,-0.00091096,-0.00013660,0.00016180,-0.00009589,-
 0.24151396,0.05627908,-0.25878123,0.26212251,-0.06914788,0.27654180,-0
 .00000877,0.00002911,-0.00000080,-0.00001667,0.00003072,-0.00001472,0.
 00001375,-0.00003943,-0.00000790,0.00000059,0.00000480,0.00000051,-0.0
 0000736,-0.00000540,-0.00000629,0.00002429,-0.00002990,0.00002659,-0.0
 0002845,0.00004136,-0.00003713,-0.00004045,0.00001908,-0.00003637,0.00
 002609,-0.00001490,0.00001976,-0.00003854,-0.00000486,-0.00000492,0.00
 000773,0.00002668,-0.00001432,0.00000427,0.00001607,0.00000885,0.00000
 028,-0.00000557,0.00001640,-0.00000174,0.00000453,-0.00000245,-0.00000
 551,-0.00001728,0.00000580,0.00000443,-0.00000365,0.00000193,-0.000005
 29,0.00000099,-0.00000161,-0.00000207,0.00000046,0.00000244,0.00000407
 ,-0.00000510,-0.00000137,0.00000007,0.00000316,0.00000011,0.00000751,-
 0.00000016,0.00000438,0.00014847,-0.00000217,0.00006118,-0.00000650,0.
 00002568,0.00002253,-0.00000421,-0.00000043,0.00000013,-0.00000167,-0.
 00000082,-0.00000192,0.00000453,-0.00000216,-0.00000091,-0.00000004,0.
 00000156,0.00000081,-0.00025497,0.00007805,0.00004930,0.00002923,-0.00
 001372,-0.00001094,0.00027781,-0.00016667,-0.00012642,-0.00034135,0.00
 103683,-0.00064904,0.00050048,-0.00181612,0.00187201,-0.00002311,-0.00
 004276,-0.00013347,-0.02703943,-0.01066571,-0.03972461,-0.00384110,-0.
 02759747,-0.02019948,0.03061366,-0.00000752,0.00000734,0.00000292,0.00
 001871,0.00000298,-0.00001619,-0.00002301,-0.00001332,0.00000615,0.000
 01031,0.00001455,0.00000082,0.00000527,-0.00000104,-0.00000059,0.00001
 400,0.00001922,-0.00000762,0.00002179,0.00001405,-0.00000208,-0.000070
 17,0.00002079,-0.00002125,0.00000562,-0.00002514,0.00001953,-0.0000139
 1,-0.00000303,-0.00000141,0.00000202,-0.00000572,0.00000260,0.00000126
 ,0.00000354,-0.00000826,-0.00000287,0.00000034,0.00000107,0.00000143,-
 0.00000163,0.00000547,0.00000251,0.00000107,-0.00000048,-0.00000137,0.
 00000092,-0.00000028,-0.00000475,-0.00000235,0.00000011,-0.00000109,-0
 .00000450,0.00000454,-0.00000316,0.00000040,0.00000082,0.00000321,0.00
 000219,-0.00000182,0.00000410,-0.00000765,-0.00000075,0.00012658,-0.00
 005254,0.00003521,0.00001430,-0.00000038,-0.00000648,-0.00000125,-0.00
 000469,-0.00000136,0.00000116,-0.00000235,0.00000179,-0.00000235,0.000
 00080,0.00000010,0.00000019,-0.00000154,-0.00000009,-0.00014616,0.0001
 3501,0.00005581,0.00000541,-0.00001765,-0.00001884,0.00013358,-0.00017
 015,-0.00010007,0.00024253,-0.00048766,0.00142185,-0.00089569,0.000060
 52,-0.00335794,0.00010623,-0.00044121,-0.00004921,-0.04566121,-0.36868
 168,-0.25819817,0.00699907,0.00705506,0.01178863,0.03911522,0.36258547
 ,-0.00000273,0.00000007,0.00000671,0.00001046,-0.00001031,0.00001808,-
 0.00001029,0.00000249,-0.00002271,0.00000483,-0.00000094,0.00001135,0.
 00000004,-0.00000366,-0.00000257,-0.00001054,0.00001960,-0.00001728,0.
 00002450,-0.00000808,0.00001308,-0.00006169,0.00001175,-0.00002988,-0.
 00000639,-0.00000965,0.00000930,0.00000403,0.00000232,-0.00000506,-0.0
 0000691,-0.00000905,0.00000569,0.00000143,-0.00000265,0.00001564,-0.00
 000064,0.00000320,-0.00001047,-0.00000079,0.00000906,-0.00000471,-0.00
 000173,-0.00000334,0.00000853,-0.00000158,0.00000291,-0.00000168,-0.00
 000110,-0.00000130,0.00000198,-0.00000071,0.00000052,-0.00000459,-0.00
 000051,-0.00000029,-0.00000107,-0.00000142,0.00000180,0.00000241,0.000
 00316,0.00000127,0.00001003,0.00012920,-0.00004161,0.00007325,0.000011
 83,-0.00000432,0.00001270,-0.00000076,-0.00000229,0.00000044,0.0000013
 8,0.00000525,-0.00000448,-0.00000056,0.00000030,-0.00000165,-0.0000023
 3,0.00000348,0.00000284,-0.00011664,0.00013799,-0.00002736,-0.00000228
 ,-0.00004790,0.00001225,0.00008429,-0.00011288,-0.00006515,-0.00106427
 ,0.00225388,-0.00183601,0.00183640,-0.00296023,0.00315496,0.00001558,0
 .00023991,0.00027927,-0.05934336,-0.21846017,-0.19695854,-0.00037185,-
 0.02946257,-0.01718317,0.05888196,0.24844545,0.21253786\\-0.00000073,0
 .00000082,0.00000047,0.00000141,-0.00000241,-0.00000266,-0.00000131,0.
 00000017,-0.00000021,-0.00000081,-0.00000003,-0.00000092,0.00000090,-0
 .00000033,-0.00000038,-0.00000271,0.00000371,-0.00000227,0.00000866,0.
 00000578,-0.00000115,-0.00000961,-0.00001831,0.00001091,-0.00000156,0.
 00000800,-0.00000448,0.00000442,0.00000086,0.00000142,-0.00000138,-0.0
 0000341,0.00000137,-0.00000057,-0.00000089,-0.00000047,0.00000023,-0.0
 0000104,-0.00000071,0.00000083,0.,-0.00000040,0.00000050,-0.00000009,-
 0.00000080,0.00000031,0.00000045,-0.00000076,0.00000040,-0.00000012,-0
 .00000130,0.00000012,-0.00000085,-0.00000112,-0.00000023,-0.00000077,-
 0.00000080,-0.00000034,-0.00000042,0.00000032,0.00000074,-0.00000077,0
 .00000200,0.00000488,0.00000434,-0.00000662,-0.00000180,-0.00000064,-0
 .00000038,-0.00000070,-0.00000067,-0.00000022,-0.00000060,-0.00000080,
 -0.00000055,-0.00000059,-0.00000078,-0.00000045,-0.00000016,0.00000030
 ,0.00000049,-0.00000259,0.00000355,0.00000342,0.00000557,-0.00000329,-
 0.00000057,-0.00000552,0.00000537,0.00000277,0.00000139,0.00000399,0.0
 0000007,0.00000193,-0.00001243,0.00000104,-0.00000157,0.00000108,0.000
 00241,0.00000060,0.00000748,0.00000250,-0.00000300,-0.00000244,-0.0000
 0471,0.00000288,0.00000459,0.00000275\\\@


 ON A CLEAR DISK YOU CAN SEEK FOREVER.
 Job cpu time:       0 days 17 hours 53 minutes 30.8 seconds.
 Elapsed time:       0 days  0 hours 38 minutes 23.6 seconds.
 File lengths (MBytes):  RWF=   1060 Int=      0 D2E=      0 Chk=     28 Scr=      8
 Normal termination of Gaussian 16 at Thu Jan 26 16:24:48 2023.
