 Entering Gaussian System, Link 0=g16
 Input=NicPySs3h1.gjf
 Output=NicPySs3h1.log
 Initial command:
 /sw/contrib/gaussian/g16/A03/g16/l1.exe "/gscratch/scrubbed/gds001/Gau-25971.inp" -scrdir="/gscratch/scrubbed/gds001/"
 Entering Link 1 = /sw/contrib/gaussian/g16/A03/g16/l1.exe PID=     25972.
  
 Copyright (c) 1988,1990,1992,1993,1995,1998,2003,2009,2016,
            Gaussian, Inc.  All Rights Reserved.
  
 This is part of the Gaussian(R) 16 program.  It is based on
 the Gaussian(R) 09 system (copyright 2009, Gaussian, Inc.),
 the Gaussian(R) 03 system (copyright 2003, Gaussian, Inc.),
 the Gaussian(R) 98 system (copyright 1998, Gaussian, Inc.),
 the Gaussian(R) 94 system (copyright 1995, Gaussian, Inc.),
 the Gaussian 92(TM) system (copyright 1992, Gaussian, Inc.),
 the Gaussian 90(TM) system (copyright 1990, Gaussian, Inc.),
 the Gaussian 88(TM) system (copyright 1988, Gaussian, Inc.),
 the Gaussian 86(TM) system (copyright 1986, Carnegie Mellon
 University), and the Gaussian 82(TM) system (copyright 1983,
 Carnegie Mellon University). Gaussian is a federally registered
 trademark of Gaussian, Inc.
  
 This software contains proprietary and confidential information,
 including trade secrets, belonging to Gaussian, Inc.
  
 This software is provided under written license and may be
 used, copied, transmitted, or stored only in accord with that
 written license.
  
 The following legend is applicable only to US Government
 contracts under FAR:
  
                    RESTRICTED RIGHTS LEGEND
  
 Use, reproduction and disclosure by the US Government is
 subject to restrictions as set forth in subparagraphs (a)
 and (c) of the Commercial Computer Software - Restricted
 Rights clause in FAR 52.227-19.
  
 Gaussian, Inc.
 340 Quinnipiac St., Bldg. 40, Wallingford CT 06492
  
  
 ---------------------------------------------------------------
 Warning -- This program may not be used in any manner that
 competes with the business of Gaussian, Inc. or will provide
 assistance to any competitor of Gaussian, Inc.  The licensee
 of this program is prohibited from giving any competitor of
 Gaussian, Inc. access to this program.  By using this program,
 the user acknowledges that Gaussian, Inc. is engaged in the
 business of creating and licensing software in the field of
 computational chemistry and represents and warrants to the
 licensee that it is not a competitor of Gaussian, Inc. and that
 it will not use this program in any manner prohibited above.
 ---------------------------------------------------------------
  

 Cite this work as:
 Gaussian 16, Revision A.03,
 M. J. Frisch, G. W. Trucks, H. B. Schlegel, G. E. Scuseria, 
 M. A. Robb, J. R. Cheeseman, G. Scalmani, V. Barone, 
 G. A. Petersson, H. Nakatsuji, X. Li, M. Caricato, A. V. Marenich, 
 J. Bloino, B. G. Janesko, R. Gomperts, B. Mennucci, H. P. Hratchian, 
 J. V. Ortiz, A. F. Izmaylov, J. L. Sonnenberg, D. Williams-Young, 
 F. Ding, F. Lipparini, F. Egidi, J. Goings, B. Peng, A. Petrone, 
 T. Henderson, D. Ranasinghe, V. G. Zakrzewski, J. Gao, N. Rega, 
 G. Zheng, W. Liang, M. Hada, M. Ehara, K. Toyota, R. Fukuda, 
 J. Hasegawa, M. Ishida, T. Nakajima, Y. Honda, O. Kitao, H. Nakai, 
 T. Vreven, K. Throssell, J. A. Montgomery, Jr., J. E. Peralta, 
 F. Ogliaro, M. J. Bearpark, J. J. Heyd, E. N. Brothers, K. N. Kudin, 
 V. N. Staroverov, T. A. Keith, R. Kobayashi, J. Normand, 
 K. Raghavachari, A. P. Rendell, J. C. Burant, S. S. Iyengar, 
 J. Tomasi, M. Cossi, J. M. Millam, M. Klene, C. Adamo, R. Cammi, 
 J. W. Ochterski, R. L. Martin, K. Morokuma, O. Farkas, 
 J. B. Foresman, and D. J. Fox, Gaussian, Inc., Wallingford CT, 2016.
 
 ******************************************
 Gaussian 16:  ES64L-G16RevA.03 25-Dec-2016
                26-Jan-2023 
 ******************************************
 %nprocshared=28
 Will use up to   28 processors via shared memory.
 %mem=41GB
 -----------------------------
 # wB97XD/aug-cc-pVDZ opt freq
 -----------------------------
 1/18=20,19=15,26=3,38=1/1,3;
 2/9=110,12=2,17=6,18=5,40=1/2;
 3/5=16,7=10,11=2,25=1,30=1,71=1,74=-58/1,2,3;
 4//1;
 5/5=2,38=5/2;
 6/7=2,8=2,9=2,10=2,28=1/1;
 7//1,2,3,16;
 1/18=20,19=15,26=3/3(2);
 2/9=110/2;
 99//99;
 2/9=110/2;
 3/5=16,7=10,11=2,25=1,30=1,71=1,74=-58/1,2,3;
 4/5=5,16=3,69=1/1;
 5/5=2,38=5/2;
 7//1,2,3,16;
 1/18=20,19=15,26=3/3(-5);
 2/9=110/2;
 6/7=2,8=2,9=2,10=2,19=2,28=1/1;
 99/9=1/99;
 ----
 blah
 ----
 Symbolic Z-matrix:
 Charge =  1 Multiplicity = 1
 C                    -2.04658  -1.56313  -0.90675 
 C                    -1.66592  -0.60485   0.25239 
 N                    -2.85584   0.20432   0.45948 
 C                    -3.98107  -0.70966   0.2775 
 C                    -3.59126  -1.51782  -0.95891 
 C                    -0.46477   0.25182  -0.07047 
 C                     0.79622  -0.06459   0.40636 
 N                     1.86452   0.68158   0.07463 
 C                     1.77488   1.7616   -0.71442 
 C                     0.5414    2.14034  -1.21647 
 C                    -0.57943   1.38103  -0.89184 
 C                    -2.87576   0.91289   1.72588 
 H                    -1.42918  -1.20363   1.1575 
 H                    -1.6069   -1.22626  -1.85311 
 H                    -1.6602   -2.56945  -0.70973 
 H                    -3.92726  -1.00577  -1.86749 
 H                    -4.0374   -2.51759  -0.95366 
 H                    -4.09666  -1.37334   1.15845 
 H                    -4.91293  -0.14501   0.15652 
 H                    -1.56939   1.65524  -1.25653 
 H                     2.70111   2.29403  -0.9159 
 H                     2.80363   0.41041   0.45483 
 H                     0.98902  -0.91167   1.06166 
 H                    -2.03336   1.61504   1.78561 
 H                    -2.81914   0.22409   2.59234 
 H                    -3.80167   1.49382   1.80597 
 H                     0.46578   3.01976  -1.85173 
 O                     4.25974  -0.02255   1.03904 
 H                     4.66463   0.275     1.85665 
 H                     4.904    -0.61517   0.59933 
 O                     5.98308  -1.6746   -0.2462 
 H                     6.15409  -2.58622   0.0058 
 H                     6.76227  -1.38317  -0.72761 
 O                     5.39925   0.95079   3.37118 
 H                     5.45345   1.92137   3.39849 
 H                     5.17814   0.71926   4.28883 
 
 Add virtual bond connecting atoms O28        and H22        Dist= 3.08D+00.
 Add virtual bond connecting atoms O31        and H30        Dist= 3.27D+00.
 Add virtual bond connecting atoms O34        and H29        Dist= 3.43D+00.

 GradGradGradGradGradGradGradGradGradGradGradGradGradGradGradGradGradGrad
 Berny optimization.
 Initialization pass.
                           ----------------------------
                           !    Initial Parameters    !
                           ! (Angstroms and Degrees)  !
 --------------------------                            --------------------------
 ! Name  Definition              Value          Derivative Info.                !
 --------------------------------------------------------------------------------
 ! R1    R(1,2)                  1.5514         estimate D2E/DX2                !
 ! R2    R(1,5)                  1.5462         estimate D2E/DX2                !
 ! R3    R(1,14)                 1.0965         estimate D2E/DX2                !
 ! R4    R(1,15)                 1.0958         estimate D2E/DX2                !
 ! R5    R(2,3)                  1.4538         estimate D2E/DX2                !
 ! R6    R(2,6)                  1.5103         estimate D2E/DX2                !
 ! R7    R(2,13)                 1.1108         estimate D2E/DX2                !
 ! R8    R(3,4)                  1.461          estimate D2E/DX2                !
 ! R9    R(3,12)                 1.4513         estimate D2E/DX2                !
 ! R10   R(4,5)                  1.5277         estimate D2E/DX2                !
 ! R11   R(4,18)                 1.109          estimate D2E/DX2                !
 ! R12   R(4,19)                 1.0963         estimate D2E/DX2                !
 ! R13   R(5,16)                 1.0957         estimate D2E/DX2                !
 ! R14   R(5,17)                 1.0948         estimate D2E/DX2                !
 ! R15   R(6,7)                  1.3848         estimate D2E/DX2                !
 ! R16   R(6,11)                 1.401          estimate D2E/DX2                !
 ! R17   R(7,8)                  1.3446         estimate D2E/DX2                !
 ! R18   R(7,23)                 1.0882         estimate D2E/DX2                !
 ! R19   R(8,9)                  1.3406         estimate D2E/DX2                !
 ! R20   R(8,22)                 1.0488         estimate D2E/DX2                !
 ! R21   R(9,10)                 1.3846         estimate D2E/DX2                !
 ! R22   R(9,21)                 1.0872         estimate D2E/DX2                !
 ! R23   R(10,11)                1.3922         estimate D2E/DX2                !
 ! R24   R(10,27)                1.0875         estimate D2E/DX2                !
 ! R25   R(11,20)                1.0901         estimate D2E/DX2                !
 ! R26   R(12,24)                1.0983         estimate D2E/DX2                !
 ! R27   R(12,25)                1.1083         estimate D2E/DX2                !
 ! R28   R(12,26)                1.096          estimate D2E/DX2                !
 ! R29   R(22,28)                1.6276         estimate D2E/DX2                !
 ! R30   R(28,29)                0.9597         estimate D2E/DX2                !
 ! R31   R(28,30)                0.9796         estimate D2E/DX2                !
 ! R32   R(29,34)                1.8139         estimate D2E/DX2                !
 ! R33   R(30,31)                1.7325         estimate D2E/DX2                !
 ! R34   R(31,32)                0.9611         estimate D2E/DX2                !
 ! R35   R(31,33)                0.9612         estimate D2E/DX2                !
 ! R36   R(34,35)                0.9725         estimate D2E/DX2                !
 ! R37   R(34,36)                0.9719         estimate D2E/DX2                !
 ! A1    A(2,1,5)              104.6092         estimate D2E/DX2                !
 ! A2    A(2,1,14)             110.8968         estimate D2E/DX2                !
 ! A3    A(2,1,15)             110.2666         estimate D2E/DX2                !
 ! A4    A(5,1,14)             111.2511         estimate D2E/DX2                !
 ! A5    A(5,1,15)             112.6579         estimate D2E/DX2                !
 ! A6    A(14,1,15)            107.2125         estimate D2E/DX2                !
 ! A7    A(1,2,3)              104.4418         estimate D2E/DX2                !
 ! A8    A(1,2,6)              112.6929         estimate D2E/DX2                !
 ! A9    A(1,2,13)             109.1566         estimate D2E/DX2                !
 ! A10   A(3,2,6)              111.4505         estimate D2E/DX2                !
 ! A11   A(3,2,13)             111.0027         estimate D2E/DX2                !
 ! A12   A(6,2,13)             108.0874         estimate D2E/DX2                !
 ! A13   A(2,3,4)              105.3336         estimate D2E/DX2                !
 ! A14   A(2,3,12)             114.0341         estimate D2E/DX2                !
 ! A15   A(4,3,12)             113.7997         estimate D2E/DX2                !
 ! A16   A(3,4,5)              103.6047         estimate D2E/DX2                !
 ! A17   A(3,4,18)             110.8366         estimate D2E/DX2                !
 ! A18   A(3,4,19)             110.2543         estimate D2E/DX2                !
 ! A19   A(5,4,18)             110.6661         estimate D2E/DX2                !
 ! A20   A(5,4,19)             113.5815         estimate D2E/DX2                !
 ! A21   A(18,4,19)            107.8965         estimate D2E/DX2                !
 ! A22   A(1,5,4)              104.0703         estimate D2E/DX2                !
 ! A23   A(1,5,16)             110.365          estimate D2E/DX2                !
 ! A24   A(1,5,17)             112.3443         estimate D2E/DX2                !
 ! A25   A(4,5,16)             110.222          estimate D2E/DX2                !
 ! A26   A(4,5,17)             112.0382         estimate D2E/DX2                !
 ! A27   A(16,5,17)            107.8046         estimate D2E/DX2                !
 ! A28   A(2,6,7)              121.4            estimate D2E/DX2                !
 ! A29   A(2,6,11)             121.1597         estimate D2E/DX2                !
 ! A30   A(7,6,11)             117.4231         estimate D2E/DX2                !
 ! A31   A(6,7,8)              120.7783         estimate D2E/DX2                !
 ! A32   A(6,7,23)             123.1322         estimate D2E/DX2                !
 ! A33   A(8,7,23)             116.0893         estimate D2E/DX2                !
 ! A34   A(7,8,9)              122.6267         estimate D2E/DX2                !
 ! A35   A(7,8,22)             118.5857         estimate D2E/DX2                !
 ! A36   A(9,8,22)             118.7861         estimate D2E/DX2                !
 ! A37   A(8,9,10)             119.5632         estimate D2E/DX2                !
 ! A38   A(8,9,21)             116.5303         estimate D2E/DX2                !
 ! A39   A(10,9,21)            123.9059         estimate D2E/DX2                !
 ! A40   A(9,10,11)            118.9138         estimate D2E/DX2                !
 ! A41   A(9,10,27)            119.6675         estimate D2E/DX2                !
 ! A42   A(11,10,27)           121.4187         estimate D2E/DX2                !
 ! A43   A(6,11,10)            120.6909         estimate D2E/DX2                !
 ! A44   A(6,11,20)            118.2428         estimate D2E/DX2                !
 ! A45   A(10,11,20)           121.0607         estimate D2E/DX2                !
 ! A46   A(3,12,24)            110.4303         estimate D2E/DX2                !
 ! A47   A(3,12,25)            112.2124         estimate D2E/DX2                !
 ! A48   A(3,12,26)            109.521          estimate D2E/DX2                !
 ! A49   A(24,12,25)           108.3981         estimate D2E/DX2                !
 ! A50   A(24,12,26)           107.7671         estimate D2E/DX2                !
 ! A51   A(25,12,26)           108.3873         estimate D2E/DX2                !
 ! A52   A(22,28,29)           126.9259         estimate D2E/DX2                !
 ! A53   A(22,28,30)           126.0296         estimate D2E/DX2                !
 ! A54   A(29,28,30)           107.0091         estimate D2E/DX2                !
 ! A55   A(30,31,32)           124.2524         estimate D2E/DX2                !
 ! A56   A(30,31,33)           124.3285         estimate D2E/DX2                !
 ! A57   A(32,31,33)           105.9421         estimate D2E/DX2                !
 ! A58   A(29,34,35)           114.699          estimate D2E/DX2                !
 ! A59   A(29,34,36)           127.4067         estimate D2E/DX2                !
 ! A60   A(35,34,36)           102.94           estimate D2E/DX2                !
 ! A61   L(8,22,28,23,-1)      179.7489         estimate D2E/DX2                !
 ! A62   L(28,29,34,24,-1)     178.2274         estimate D2E/DX2                !
 ! A63   L(28,30,31,15,-1)     177.4372         estimate D2E/DX2                !
 ! A64   L(8,22,28,23,-2)      179.5455         estimate D2E/DX2                !
 ! A65   L(28,29,34,24,-2)     183.6283         estimate D2E/DX2                !
 ! A66   L(28,30,31,15,-2)     178.2837         estimate D2E/DX2                !
 ! D1    D(5,1,2,3)            -17.8308         estimate D2E/DX2                !
 ! D2    D(5,1,2,6)           -138.9626         estimate D2E/DX2                !
 ! D3    D(5,1,2,13)           100.9374         estimate D2E/DX2                !
 ! D4    D(14,1,2,3)           102.1993         estimate D2E/DX2                !
 ! D5    D(14,1,2,6)           -18.9325         estimate D2E/DX2                !
 ! D6    D(14,1,2,13)         -139.0325         estimate D2E/DX2                !
 ! D7    D(15,1,2,3)          -139.2045         estimate D2E/DX2                !
 ! D8    D(15,1,2,6)            99.6637         estimate D2E/DX2                !
 ! D9    D(15,1,2,13)          -20.4363         estimate D2E/DX2                !
 ! D10   D(2,1,5,4)             -7.6937         estimate D2E/DX2                !
 ! D11   D(2,1,5,16)           110.5448         estimate D2E/DX2                !
 ! D12   D(2,1,5,17)          -129.1098         estimate D2E/DX2                !
 ! D13   D(14,1,5,4)          -127.4864         estimate D2E/DX2                !
 ! D14   D(14,1,5,16)           -9.2479         estimate D2E/DX2                !
 ! D15   D(14,1,5,17)          111.0974         estimate D2E/DX2                !
 ! D16   D(15,1,5,4)           112.0887         estimate D2E/DX2                !
 ! D17   D(15,1,5,16)         -129.6728         estimate D2E/DX2                !
 ! D18   D(15,1,5,17)           -9.3274         estimate D2E/DX2                !
 ! D19   D(1,2,3,4)             38.1545         estimate D2E/DX2                !
 ! D20   D(1,2,3,12)           163.6356         estimate D2E/DX2                !
 ! D21   D(6,2,3,4)            160.107          estimate D2E/DX2                !
 ! D22   D(6,2,3,12)           -74.4119         estimate D2E/DX2                !
 ! D23   D(13,2,3,4)           -79.3517         estimate D2E/DX2                !
 ! D24   D(13,2,3,12)           46.1293         estimate D2E/DX2                !
 ! D25   D(1,2,6,7)           -100.1352         estimate D2E/DX2                !
 ! D26   D(1,2,6,11)            78.3159         estimate D2E/DX2                !
 ! D27   D(3,2,6,7)            142.8164         estimate D2E/DX2                !
 ! D28   D(3,2,6,11)           -38.7325         estimate D2E/DX2                !
 ! D29   D(13,2,6,7)            20.5788         estimate D2E/DX2                !
 ! D30   D(13,2,6,11)         -160.9702         estimate D2E/DX2                !
 ! D31   D(2,3,4,5)            -43.4242         estimate D2E/DX2                !
 ! D32   D(2,3,4,18)            75.3023         estimate D2E/DX2                !
 ! D33   D(2,3,4,19)          -165.297          estimate D2E/DX2                !
 ! D34   D(12,3,4,5)          -169.0507         estimate D2E/DX2                !
 ! D35   D(12,3,4,18)          -50.3242         estimate D2E/DX2                !
 ! D36   D(12,3,4,19)           69.0765         estimate D2E/DX2                !
 ! D37   D(2,3,12,24)           61.6522         estimate D2E/DX2                !
 ! D38   D(2,3,12,25)          -59.4061         estimate D2E/DX2                !
 ! D39   D(2,3,12,26)         -179.8221         estimate D2E/DX2                !
 ! D40   D(4,3,12,24)         -177.4751         estimate D2E/DX2                !
 ! D41   D(4,3,12,25)           61.4666         estimate D2E/DX2                !
 ! D42   D(4,3,12,26)          -58.9494         estimate D2E/DX2                !
 ! D43   D(3,4,5,1)             30.4859         estimate D2E/DX2                !
 ! D44   D(3,4,5,16)           -87.8509         estimate D2E/DX2                !
 ! D45   D(3,4,5,17)           152.1056         estimate D2E/DX2                !
 ! D46   D(18,4,5,1)           -88.3581         estimate D2E/DX2                !
 ! D47   D(18,4,5,16)          153.3051         estimate D2E/DX2                !
 ! D48   D(18,4,5,17)           33.2616         estimate D2E/DX2                !
 ! D49   D(19,4,5,1)           150.1079         estimate D2E/DX2                !
 ! D50   D(19,4,5,16)           31.7711         estimate D2E/DX2                !
 ! D51   D(19,4,5,17)          -88.2724         estimate D2E/DX2                !
 ! D52   D(2,6,7,8)            177.7624         estimate D2E/DX2                !
 ! D53   D(2,6,7,23)            -2.3915         estimate D2E/DX2                !
 ! D54   D(11,6,7,8)            -0.7443         estimate D2E/DX2                !
 ! D55   D(11,6,7,23)          179.1018         estimate D2E/DX2                !
 ! D56   D(2,6,11,10)         -178.0175         estimate D2E/DX2                !
 ! D57   D(2,6,11,20)            2.8303         estimate D2E/DX2                !
 ! D58   D(7,6,11,10)            0.4931         estimate D2E/DX2                !
 ! D59   D(7,6,11,20)         -178.6592         estimate D2E/DX2                !
 ! D60   D(6,7,8,9)              0.4845         estimate D2E/DX2                !
 ! D61   D(6,7,8,22)          -179.9664         estimate D2E/DX2                !
 ! D62   D(23,7,8,9)          -179.372          estimate D2E/DX2                !
 ! D63   D(23,7,8,22)            0.1771         estimate D2E/DX2                !
 ! D64   D(7,8,9,10)             0.0621         estimate D2E/DX2                !
 ! D65   D(7,8,9,21)           179.7982         estimate D2E/DX2                !
 ! D66   D(22,8,9,10)         -179.4861         estimate D2E/DX2                !
 ! D67   D(22,8,9,21)            0.2499         estimate D2E/DX2                !
 ! D68   D(7,8,28,29)          -90.8136         estimate D2E/DX2                !
 ! D69   D(7,8,28,30)           91.49           estimate D2E/DX2                !
 ! D70   D(9,8,28,29)           89.0219         estimate D2E/DX2                !
 ! D71   D(9,8,28,30)          -88.6745         estimate D2E/DX2                !
 ! D72   D(8,9,10,11)           -0.3088         estimate D2E/DX2                !
 ! D73   D(8,9,10,27)          179.6237         estimate D2E/DX2                !
 ! D74   D(21,9,10,11)         179.9758         estimate D2E/DX2                !
 ! D75   D(21,9,10,27)          -0.0917         estimate D2E/DX2                !
 ! D76   D(9,10,11,6)            0.0214         estimate D2E/DX2                !
 ! D77   D(9,10,11,20)         179.1496         estimate D2E/DX2                !
 ! D78   D(27,10,11,6)        -179.9099         estimate D2E/DX2                !
 ! D79   D(27,10,11,20)         -0.7817         estimate D2E/DX2                !
 ! D80   D(22,28,31,32)       -105.9855         estimate D2E/DX2                !
 ! D81   D(22,28,31,33)        102.4074         estimate D2E/DX2                !
 ! D82   D(29,28,31,32)         76.0143         estimate D2E/DX2                !
 ! D83   D(29,28,31,33)        -75.5929         estimate D2E/DX2                !
 ! D84   D(22,28,34,35)        -54.6159         estimate D2E/DX2                !
 ! D85   D(22,28,34,36)         75.873          estimate D2E/DX2                !
 ! D86   D(30,28,34,35)        121.3784         estimate D2E/DX2                !
 ! D87   D(30,28,34,36)       -108.1326         estimate D2E/DX2                !
 --------------------------------------------------------------------------------
 Trust Radius=3.00D-01 FncErr=1.00D-07 GrdErr=1.00D-06 EigMax=2.50D+02 EigMin=1.00D-04
 Number of steps in this run=    200 maximum allowed number of steps=    216.
 GradGradGradGradGradGradGradGradGradGradGradGradGradGradGradGradGradGrad

                          Input orientation:                          
 ---------------------------------------------------------------------
 Center     Atomic      Atomic             Coordinates (Angstroms)
 Number     Number       Type             X           Y           Z
 ---------------------------------------------------------------------
      1          6           0       -2.046582   -1.563129   -0.906754
      2          6           0       -1.665920   -0.604853    0.252393
      3          7           0       -2.855838    0.204318    0.459479
      4          6           0       -3.981071   -0.709663    0.277502
      5          6           0       -3.591264   -1.517816   -0.958910
      6          6           0       -0.464768    0.251823   -0.070474
      7          6           0        0.796224   -0.064594    0.406356
      8          7           0        1.864516    0.681579    0.074631
      9          6           0        1.774881    1.761604   -0.714415
     10          6           0        0.541395    2.140341   -1.216468
     11          6           0       -0.579425    1.381033   -0.891839
     12          6           0       -2.875760    0.912893    1.725879
     13          1           0       -1.429182   -1.203625    1.157499
     14          1           0       -1.606902   -1.226256   -1.853111
     15          1           0       -1.660196   -2.569450   -0.709729
     16          1           0       -3.927255   -1.005771   -1.867488
     17          1           0       -4.037401   -2.517589   -0.953656
     18          1           0       -4.096665   -1.373342    1.158449
     19          1           0       -4.912925   -0.145011    0.156523
     20          1           0       -1.569385    1.655236   -1.256533
     21          1           0        2.701107    2.294032   -0.915896
     22          1           0        2.803625    0.410411    0.454834
     23          1           0        0.989023   -0.911667    1.061664
     24          1           0       -2.033361    1.615039    1.785611
     25          1           0       -2.819140    0.224088    2.592338
     26          1           0       -3.801672    1.493819    1.805971
     27          1           0        0.465784    3.019763   -1.851732
     28          8           0        4.259743   -0.022554    1.039040
     29          1           0        4.664630    0.275001    1.856651
     30          1           0        4.903999   -0.615169    0.599331
     31          8           0        5.983075   -1.674600   -0.246204
     32          1           0        6.154088   -2.586224    0.005797
     33          1           0        6.762270   -1.383165   -0.727613
     34          8           0        5.399255    0.950787    3.371184
     35          1           0        5.453451    1.921366    3.398488
     36          1           0        5.178139    0.719257    4.288834
 ---------------------------------------------------------------------
                    Distance matrix (angstroms):
                    1          2          3          4          5
     1  C    0.000000
     2  C    1.551392   0.000000
     3  N    2.375996   1.453804   0.000000
     4  C    2.423451   2.317658   1.461036   0.000000
     5  C    1.546226   2.451062   2.349133   1.527670   0.000000
     6  C    2.548637   1.510266   2.449556   3.661957   3.700800
     7  C    3.471514   2.525418   3.662334   4.822371   4.819321
     8  N    4.615032   3.761713   4.760003   6.012287   5.972527
     9  C    5.068967   4.286484   5.024612   6.342085   6.293638
    10  C    4.528713   3.816528   4.254195   5.550421   5.525153
    11  C    3.289508   2.536431   2.897029   4.160476   4.180789
    12  C    3.707961   2.436889   1.451291   2.439712   3.691664
    13  H    2.184392   1.110761   2.122471   2.744181   3.041793
    14  H    1.096537   2.196081   2.992400   3.231572   2.195972
    15  H    1.095808   2.187545   3.238888   3.133671   2.212928
    16  H    2.184168   3.125423   2.833201   2.166001   1.095716
    17  H    2.208292   3.276742   3.286612   2.188040   1.094811
    18  H    2.916149   2.705556   2.125376   1.109008   2.181631
    19  H    3.370095   3.280806   2.108416   1.096275   2.208070
    20  H    3.272298   2.719224   2.589367   3.709749   3.774233
    21  H    6.117052   5.370229   6.094112   7.422795   7.357035
    22  H    5.410480   4.587873   5.663216   6.878816   6.827250
    23  H    3.676135   2.792450   4.048581   5.035628   5.042734
    24  H    4.165304   2.722809   2.103623   3.387065   4.446823
    25  H    4.004327   2.737225   2.133266   2.753260   4.030108
    26  H    4.447938   3.373346   2.090563   2.687701   4.093749
    27  H    5.311108   4.702058   4.929665   6.181972   6.151942
    28  O    6.777110   6.005944   7.142748   8.304401   8.238078
    29  H    7.487022   6.589662   7.649479   8.843722   8.905131
    30  H    7.174782   6.579081   7.804242   8.891399   8.684030
    31  O    8.057552   7.739514   9.063923  10.024449   9.602109
    32  H    8.314473   8.070884   9.443078  10.311002   9.851093
    33  H    8.812511   8.520597   9.820249  10.811255  10.356993
    34  O    8.947682   7.878043   8.785317  10.015911  10.279744
    35  H    9.323481   8.183223   8.979438  10.279741  10.612340
    36  H    9.186948   8.055264   8.914814  10.100680  10.461632
                    6          7          8          9         10
     6  C    0.000000
     7  C    1.384770   0.000000
     8  N    2.373038   1.344642   0.000000
     9  C    2.776711   2.355610   1.340553   0.000000
    10  C    2.427379   2.749588   2.354904   1.384553   0.000000
    11  C    1.401036   2.380663   2.719586   2.391458   1.392182
    12  C    3.078438   4.022448   5.024972   5.320132   4.673434
    13  H    2.134559   2.610371   3.946523   4.750017   4.549835
    14  H    2.582050   3.497094   4.405311   4.654073   4.044066
    15  H    3.130060   3.681569   4.858807   5.527911   5.223593
    16  H    4.098734   5.326109   6.337475   6.442228   5.503697
    17  H    4.605796   5.588448   6.791515   7.221589   6.536877
    18  H    4.164383   5.120432   6.397893   6.914518   6.284727
    19  H    4.471589   5.715179   6.828152   7.008599   6.071041
    20  H    2.143941   3.364390   3.809420   3.389590   2.166177
    21  H    3.861104   3.307574   2.069066   1.087184   2.185937
    22  H    3.314135   2.063405   1.048815   2.061839   3.302059
    23  H    2.179209   1.088179   2.068612   3.304301   3.834711
    24  H    2.786376   3.567921   4.358009   4.557885   3.989710
    25  H    3.554491   4.234703   5.337113   5.865458   5.428833
    26  H    4.024740   5.052546   5.980214   6.125520   5.330606
    27  H    3.420570   3.836849   3.336829   2.142473   1.087502
    28  O    4.860793   3.521082   2.676378   3.525956   4.857113
    29  H    5.479514   4.145268   3.343881   4.143793   5.470340
    30  H    5.479414   4.148998   3.345941   4.143230   5.470126
    31  O    6.731765   5.470044   4.755738   5.453037   6.716180
    32  H    7.202054   5.935130   5.392931   6.212871   7.438862
    33  H    7.438756   6.214356   5.375384   5.896083   7.166126
    34  O    6.835227   5.568581   4.840879   5.521379   6.786781
    35  H    7.060197   5.881042   5.046340   5.520269   6.743446
    36  H    7.145940   5.906711   5.361066   6.140127   7.336704
                   11         12         13         14         15
    11  C    0.000000
    12  C    3.513511   0.000000
    13  H    3.406219   2.625889   0.000000
    14  H    2.962720   4.358340   3.015936   0.000000
    15  H    4.099701   4.420011   2.324949   1.764747   0.000000
    16  H    4.225718   4.207042   3.928112   2.330849   2.987483
    17  H    5.211590   4.505277   3.603649   2.895494   2.390250
    18  H    4.915408   2.653197   2.672877   3.910249   3.295018
    19  H    4.712440   2.780662   3.776120   4.017152   4.148318
    20  H    1.090050   3.339531   3.744368   2.942840   4.260893
    21  H    3.405295   6.323604   5.795848   5.641785   6.535819
    22  H    3.768377   5.841529   4.584267   5.240042   5.491947
    23  H    3.395979   4.325130   2.437650   3.915828   3.592275
    24  H    3.055720   1.098277   2.950326   4.636283   4.886299
    25  H    4.300504   1.108336   2.455425   4.830635   4.477795
    26  H    4.204019   1.095994   3.650401   5.060109   5.236871
    27  H    2.167785   5.329551   5.521175   4.724903   6.087961
    28  O    5.395915   7.229261   5.811439   6.650636   6.677616
    29  H    6.023090   7.568454   6.309492   7.439638   7.394635
    30  H    6.022985   8.008042   6.384905   6.984249   6.972912
    31  O    7.267747   9.437330   7.558687   7.771159   7.709423
    32  H    7.866707   9.835683   7.793843   8.095555   7.846993
    33  H    7.846544  10.207014   8.407483   8.445970   8.505617
    34  O    7.355480   8.437081   7.494627   9.006609   8.881541
    35  H    7.422564   8.555138   7.884049   9.345341   9.362096
    36  H    7.773472   8.454083   7.560386   9.356564   9.086477
                   16         17         18         19         20
    16  H    0.000000
    17  H    1.769976   0.000000
    18  H    3.052884   2.402873   0.000000
    19  H    2.410202   2.761913   1.782956   0.000000
    20  H    3.607461   4.857500   4.625102   4.051774   0.000000
    21  H    7.465213   8.280134   7.997640   8.066753   4.331420
    22  H    7.259717   7.573418   7.161763   7.742262   4.858146
    23  H    5.723511   5.648490   5.107517   6.019969   4.302148
    24  H    4.878587   5.347745   3.685238   3.747478   3.077585
    25  H    4.757155   4.644892   2.497977   3.233166   4.292305
    26  H    4.445000   4.874680   2.954136   2.577077   3.793164
    27  H    5.958520   7.193572   7.012596   6.555867   2.521529
    28  O    8.743086   8.890368   8.465722   9.215838   6.485628
    29  H    9.451459   9.561471   8.942305   9.736345   7.103514
    30  H    9.177626   9.272519   9.049828   9.838146   7.106593
    31  O   10.064320  10.080727  10.181599  11.010207   8.315541
    32  H   10.374994  10.236782  10.386415  11.334064   8.901432
    33  H   10.756751  10.861441  11.021515  11.773908   8.884149
    34  O   10.874538  10.944603  10.023486  10.857065   8.394877
    35  H   11.148824  11.345561  10.347830  11.056310   8.429725
    36  H   11.125836  11.085443  10.010009  10.938580   8.783862
                   21         22         23         24         25
    21  H    0.000000
    22  H    2.331832   0.000000
    23  H    4.137449   2.325707   0.000000
    24  H    5.493119   5.159315   4.005390   0.000000
    25  H    6.860430   6.018233   4.258522   1.789693   0.000000
    26  H    7.094719   6.828564   5.412127   1.772578   1.787725
    27  H    2.529653   4.194576   4.921158   4.631332   6.193245
    28  O    3.408474   1.627586   3.389490   6.545398   7.251493
    29  H    3.952079   2.333831   3.943383   6.831093   7.520016
    30  H    3.951215   2.341851   3.953315   7.382957   8.020181
    31  O    5.193250   3.866216   5.218538   8.900182   9.441468
    32  H    6.048925   4.517417   5.531446   9.372976   9.752275
    33  H    5.481813   4.503994   6.062525   9.626456  10.266877
    34  O    5.240550   3.941370   5.315333   7.628830   8.287141
    35  H    5.131100   4.239063   5.780825   7.664696   8.483301
    36  H    5.975351   4.520316   5.533826   7.685980   8.190224
                   26         27         28         29         30
    26  H    0.000000
    27  H    5.823957   0.000000
    28  O    8.238567   5.657418   0.000000
    29  H    8.553733   6.238279   0.959667   0.000000
    30  H    9.038391   6.238445   0.979593   1.559023   0.000000
    31  O   10.487687   7.419923   2.711269   3.156143   1.732550
    32  H   10.908920   8.199653   3.350901   3.718972   2.408332
    33  H   11.238014   7.764995   3.351860   3.718606   2.409101
    34  O    9.348894   7.476540   2.772143   1.813883   3.221904
    35  H    9.400862   7.324487   3.281883   2.389564   3.817222
    36  H    9.348880   8.074972   3.457585   2.525187   3.932973
                   31         32         33         34         35
    31  O    0.000000
    32  H    0.961149   0.000000
    33  H    0.961163   1.534642   0.000000
    34  O    4.507660   4.940248   4.909713   0.000000
    35  H    5.147354   5.685034   5.445883   0.972474   0.000000
    36  H    5.190862   5.497553   5.665191   0.971895   1.521045
                   36
    36  H    0.000000
 Stoichiometry    C10H21N2O3(1+)
 Framework group  C1[X(C10H21N2O3)]
 Deg. of freedom   102
 Full point group                 C1      NOp   1
 Largest Abelian subgroup         C1      NOp   1
 Largest concise Abelian subgroup C1      NOp   1
                         Standard orientation:                         
 ---------------------------------------------------------------------
 Center     Atomic      Atomic             Coordinates (Angstroms)
 Number     Number       Type             X           Y           Z
 ---------------------------------------------------------------------
      1          6           0       -2.723306    1.666887   -0.452486
      2          6           0       -2.130675    0.241440   -0.606460
      3          7           0       -3.237541   -0.647268   -0.292466
      4          6           0       -4.418920   -0.012861   -0.872551
      5          6           0       -4.254837    1.459860   -0.501140
      6          6           0       -0.951747   -0.001087    0.305798
      7          6           0        0.349716    0.078588   -0.160499
      8          7           0        1.390902   -0.095657    0.672347
      9          6           0        1.236147   -0.361425    1.977146
     10          6           0       -0.038957   -0.465684    2.506510
     11          6           0       -1.133701   -0.284229    1.665807
     12          6           0       -3.036456   -2.017712   -0.725702
     13          1           0       -1.790849    0.099211   -1.654352
     14          1           0       -2.413313    2.118854    0.497264
     15          1           0       -2.359618    2.317932   -1.255396
     16          1           0       -4.697292    1.654016    0.482288
     17          1           0       -4.741659    2.122521   -1.223979
     18          1           0       -4.433770   -0.139368   -1.974220
     19          1           0       -5.330903   -0.467992   -0.468865
     20          1           0       -2.152795   -0.372024    2.042569
     21          1           0        2.146257   -0.487267    2.558378
     22          1           0        2.362202   -0.027398    0.282564
     23          1           0        0.597501    0.279078   -1.200950
     24          1           0       -2.162514   -2.454150   -0.223746
     25          1           0       -2.884507   -2.092877   -1.820997
     26          1           0       -3.912030   -2.619262   -0.456052
     27          1           0       -0.166492   -0.687310    3.563523
     28          8           0        3.866859    0.091107   -0.326532
     29          1           0        4.401863   -0.620872   -0.684047
     30          1           0        4.410392    0.905161   -0.365137
     31          8           0        5.301479    2.390657   -0.396612
     32          1           0        5.464991    2.906688   -1.190832
     33          1           0        6.013590    2.608549    0.211052
     34          8           0        5.383544   -2.032375   -1.262091
     35          1           0        5.486635   -2.748826   -0.612649
     36          1           0        5.290151   -2.511971   -2.102237
 ---------------------------------------------------------------------
 Rotational constants (GHZ):           0.8294900           0.1900179           0.1845937
 Standard basis: Aug-CC-pVDZ (5D, 7F)
 There are   564 symmetry adapted cartesian basis functions of A   symmetry.
 There are   534 symmetry adapted basis functions of A   symmetry.
   534 basis functions,   876 primitive gaussians,   564 cartesian basis functions
    59 alpha electrons       59 beta electrons
       nuclear repulsion energy      1010.1272009358 Hartrees.
 NAtoms=   36 NActive=   36 NUniq=   36 SFac= 1.00D+00 NAtFMM=   60 NAOKFM=F Big=F
 Integral buffers will be    131072 words long.
 Raffenetti 2 integral format.
 Two-electron integral symmetry is turned on.
 Nuclear repulsion after empirical dispersion term =     1010.1045393837 Hartrees.
 One-electron integrals computed using PRISM.
 NBasis=   534 RedAO= T EigKep=  2.36D-06  NBF=   534
 NBsUse=   534 1.00D-06 EigRej= -1.00D+00 NBFU=   534
 ExpMin= 2.97D-02 ExpMax= 1.17D+04 ExpMxC= 4.01D+02 IAcc=3 IRadAn=         5 AccDes= 0.00D+00
 Harris functional with IExCor= 4639 and IRadAn=       5 diagonalized for initial guess.
 HarFok:  IExCor= 4639 AccDes= 0.00D+00 IRadAn=         5 IDoV= 1 UseB2=F ITyADJ=14
 ICtDFT=  3500011 ScaDFX=  1.000000  1.000000  1.000000  1.000000
 FoFCou: FMM=F IPFlag=           0 FMFlag=      100000 FMFlg1=           0
         NFxFlg=           0 DoJE=T BraDBF=F KetDBF=T FulRan=T
         wScrn=  0.000000 ICntrl=       500 IOpCl=  0 I1Cent=   200000004 NGrid=           0
         NMat0=    1 NMatS0=      1 NMatT0=    0 NMatD0=    1 NMtDS0=    0 NMtDT0=    0
 Petite list used in FoFCou.
 Requested convergence on RMS density matrix=1.00D-08 within 128 cycles.
 Requested convergence on MAX density matrix=1.00D-06.
 Requested convergence on             energy=1.00D-06.
 No special actions if energy rises.
 SCF Done:  E(RwB97XD) =  -728.585326086     A.U. after   14 cycles
            NFock= 14  Conv=0.72D-08     -V/T= 2.0063

 **********************************************************************

            Population analysis using the SCF density.

 **********************************************************************

 Orbital symmetries:
       Occupied  (A) (A) (A) (A) (A) (A) (A) (A) (A) (A) (A) (A)
                 (A) (A) (A) (A) (A) (A) (A) (A) (A) (A) (A) (A)
                 (A) (A) (A) (A) (A) (A) (A) (A) (A) (A) (A) (A)
                 (A) (A) (A) (A) (A) (A) (A) (A) (A) (A) (A) (A)
                 (A) (A) (A) (A) (A) (A) (A) (A) (A) (A) (A)
       Virtual   (A) (A) (A) (A) (A) (A) (A) (A) (A) (A) (A) (A)
                 (A) (A) (A) (A) (A) (A) (A) (A) (A) (A) (A) (A)
                 (A) (A) (A) (A) (A) (A) (A) (A) (A) (A) (A) (A)
                 (A) (A) (A) (A) (A) (A) (A) (A) (A) (A) (A) (A)
                 (A) (A) (A) (A) (A) (A) (A) (A) (A) (A) (A) (A)
                 (A) (A) (A) (A) (A) (A) (A) (A) (A) (A) (A) (A)
                 (A) (A) (A) (A) (A) (A) (A) (A) (A) (A) (A) (A)
                 (A) (A) (A) (A) (A) (A) (A) (A) (A) (A) (A) (A)
                 (A) (A) (A) (A) (A) (A) (A) (A) (A) (A) (A) (A)
                 (A) (A) (A) (A) (A) (A) (A) (A) (A) (A) (A) (A)
                 (A) (A) (A) (A) (A) (A) (A) (A) (A) (A) (A) (A)
                 (A) (A) (A) (A) (A) (A) (A) (A) (A) (A) (A) (A)
                 (A) (A) (A) (A) (A) (A) (A) (A) (A) (A) (A) (A)
                 (A) (A) (A) (A) (A) (A) (A) (A) (A) (A) (A) (A)
                 (A) (A) (A) (A) (A) (A) (A) (A) (A) (A) (A) (A)
                 (A) (A) (A) (A) (A) (A) (A) (A) (A) (A) (A) (A)
                 (A) (A) (A) (A) (A) (A) (A) (A) (A) (A) (A) (A)
                 (A) (A) (A) (A) (A) (A) (A) (A) (A) (A) (A) (A)
                 (A) (A) (A) (A) (A) (A) (A) (A) (A) (A) (A) (A)
                 (A) (A) (A) (A) (A) (A) (A) (A) (A) (A) (A) (A)
                 (A) (A) (A) (A) (A) (A) (A) (A) (A) (A) (A) (A)
                 (A) (A) (A) (A) (A) (A) (A) (A) (A) (A) (A) (A)
                 (A) (A) (A) (A) (A) (A) (A) (A) (A) (A) (A) (A)
                 (A) (A) (A) (A) (A) (A) (A) (A) (A) (A) (A) (A)
                 (A) (A) (A) (A) (A) (A) (A) (A) (A) (A) (A) (A)
                 (A) (A) (A) (A) (A) (A) (A) (A) (A) (A) (A) (A)
                 (A) (A) (A) (A) (A) (A) (A) (A) (A) (A) (A) (A)
                 (A) (A) (A) (A) (A) (A) (A) (A) (A) (A) (A) (A)
                 (A) (A) (A) (A) (A) (A) (A) (A) (A) (A) (A) (A)
                 (A) (A) (A) (A) (A) (A) (A) (A) (A) (A) (A) (A)
                 (A) (A) (A) (A) (A) (A) (A) (A) (A) (A) (A) (A)
                 (A) (A) (A) (A) (A) (A) (A) (A) (A) (A) (A) (A)
                 (A) (A) (A) (A) (A) (A) (A) (A) (A) (A) (A) (A)
                 (A) (A) (A) (A) (A) (A) (A) (A) (A) (A) (A) (A)
                 (A) (A) (A) (A) (A) (A) (A) (A) (A) (A) (A) (A)
                 (A) (A) (A) (A) (A) (A) (A) (A) (A) (A) (A) (A)
                 (A) (A) (A) (A) (A) (A) (A) (A) (A) (A) (A) (A)
                 (A) (A) (A) (A) (A) (A) (A) (A) (A) (A) (A) (A)
                 (A) (A) (A) (A) (A) (A) (A) (A) (A) (A) (A) (A)
                 (A) (A) (A) (A) (A) (A) (A)
 The electronic state is 1-A.
 Alpha  occ. eigenvalues --  -19.40330 -19.40328 -19.37196 -14.67132 -14.54831
 Alpha  occ. eigenvalues --  -10.50631 -10.50265 -10.46770 -10.46381 -10.46298
 Alpha  occ. eigenvalues --  -10.44789 -10.41157 -10.41059 -10.40164 -10.38764
 Alpha  occ. eigenvalues --   -1.25373  -1.24750  -1.24122  -1.21469  -1.15335
 Alpha  occ. eigenvalues --   -1.07351  -1.04121  -0.98676  -0.94598  -0.89937
 Alpha  occ. eigenvalues --   -0.88335  -0.87141  -0.82154  -0.78055  -0.76858
 Alpha  occ. eigenvalues --   -0.75089  -0.74325  -0.74141  -0.73557  -0.72815
 Alpha  occ. eigenvalues --   -0.70161  -0.68356  -0.68063  -0.67255  -0.64159
 Alpha  occ. eigenvalues --   -0.63983  -0.62879  -0.61983  -0.60544  -0.60340
 Alpha  occ. eigenvalues --   -0.59500  -0.57216  -0.56666  -0.55736  -0.54844
 Alpha  occ. eigenvalues --   -0.53907  -0.53189  -0.52959  -0.52318  -0.52003
 Alpha  occ. eigenvalues --   -0.51431  -0.50379  -0.48478  -0.40897
 Alpha virt. eigenvalues --   -0.13554  -0.10047  -0.06762  -0.05016  -0.04937
 Alpha virt. eigenvalues --   -0.04545  -0.03258  -0.03226  -0.02698  -0.02484
 Alpha virt. eigenvalues --   -0.01609  -0.01322  -0.01105  -0.00902  -0.00442
 Alpha virt. eigenvalues --    0.00056   0.00578   0.00775   0.01280   0.01599
 Alpha virt. eigenvalues --    0.02163   0.02488   0.02784   0.03413   0.03555
 Alpha virt. eigenvalues --    0.03693   0.03818   0.04382   0.04674   0.05190
 Alpha virt. eigenvalues --    0.05463   0.05619   0.05976   0.06251   0.06566
 Alpha virt. eigenvalues --    0.06593   0.06912   0.07545   0.07874   0.07906
 Alpha virt. eigenvalues --    0.08339   0.08611   0.08693   0.09388   0.09504
 Alpha virt. eigenvalues --    0.10014   0.10497   0.10696   0.10865   0.11140
 Alpha virt. eigenvalues --    0.11345   0.11976   0.12096   0.12416   0.12527
 Alpha virt. eigenvalues --    0.12814   0.13036   0.13240   0.13407   0.13820
 Alpha virt. eigenvalues --    0.14149   0.14341   0.14563   0.15223   0.15470
 Alpha virt. eigenvalues --    0.16022   0.16297   0.16483   0.16764   0.16838
 Alpha virt. eigenvalues --    0.17199   0.17429   0.17607   0.18273   0.18590
 Alpha virt. eigenvalues --    0.18733   0.19159   0.19365   0.19496   0.19865
 Alpha virt. eigenvalues --    0.20129   0.20946   0.21198   0.21605   0.21880
 Alpha virt. eigenvalues --    0.22133   0.22832   0.23201   0.23426   0.23695
 Alpha virt. eigenvalues --    0.24119   0.24683   0.24759   0.24950   0.25251
 Alpha virt. eigenvalues --    0.25606   0.26278   0.26321   0.26747   0.26969
 Alpha virt. eigenvalues --    0.27409   0.27501   0.28187   0.28450   0.28920
 Alpha virt. eigenvalues --    0.29035   0.29650   0.30006   0.30433   0.30682
 Alpha virt. eigenvalues --    0.31500   0.31824   0.32160   0.32625   0.32810
 Alpha virt. eigenvalues --    0.33376   0.33492   0.33945   0.34421   0.35217
 Alpha virt. eigenvalues --    0.35846   0.35999   0.36542   0.37215   0.37404
 Alpha virt. eigenvalues --    0.37696   0.38259   0.38370   0.38912   0.39227
 Alpha virt. eigenvalues --    0.39394   0.40191   0.41223   0.41450   0.41662
 Alpha virt. eigenvalues --    0.42073   0.42580   0.42925   0.43049   0.43401
 Alpha virt. eigenvalues --    0.43707   0.43768   0.43983   0.44630   0.45428
 Alpha virt. eigenvalues --    0.45675   0.45838   0.46228   0.46418   0.46633
 Alpha virt. eigenvalues --    0.47200   0.47949   0.48130   0.48775   0.49369
 Alpha virt. eigenvalues --    0.50143   0.50255   0.50480   0.50824   0.51074
 Alpha virt. eigenvalues --    0.51310   0.51456   0.51997   0.52443   0.52644
 Alpha virt. eigenvalues --    0.52863   0.53324   0.53598   0.53992   0.54443
 Alpha virt. eigenvalues --    0.54541   0.55222   0.55459   0.56059   0.56503
 Alpha virt. eigenvalues --    0.56647   0.57565   0.57709   0.58162   0.58298
 Alpha virt. eigenvalues --    0.59303   0.59854   0.60128   0.60580   0.61560
 Alpha virt. eigenvalues --    0.62187   0.62891   0.63223   0.63529   0.64151
 Alpha virt. eigenvalues --    0.64482   0.64712   0.64909   0.65224   0.65927
 Alpha virt. eigenvalues --    0.66373   0.67577   0.67975   0.68220   0.68496
 Alpha virt. eigenvalues --    0.69005   0.69701   0.69927   0.70886   0.70918
 Alpha virt. eigenvalues --    0.71043   0.71880   0.72204   0.72575   0.73348
 Alpha virt. eigenvalues --    0.74047   0.74229   0.74745   0.75574   0.75886
 Alpha virt. eigenvalues --    0.76453   0.76593   0.77256   0.77634   0.77977
 Alpha virt. eigenvalues --    0.79353   0.79600   0.80136   0.80248   0.81161
 Alpha virt. eigenvalues --    0.81456   0.82160   0.83081   0.83740   0.84960
 Alpha virt. eigenvalues --    0.85075   0.86081   0.86368   0.86968   0.87426
 Alpha virt. eigenvalues --    0.88194   0.88821   0.89959   0.90713   0.91738
 Alpha virt. eigenvalues --    0.92226   0.92907   0.93172   0.93539   0.93832
 Alpha virt. eigenvalues --    0.95331   0.97123   0.97618   0.98188   0.99037
 Alpha virt. eigenvalues --    0.99749   1.00321   1.01503   1.01946   1.02799
 Alpha virt. eigenvalues --    1.03359   1.04001   1.04709   1.05657   1.06524
 Alpha virt. eigenvalues --    1.06858   1.07131   1.07617   1.08902   1.09693
 Alpha virt. eigenvalues --    1.10628   1.11776   1.13439   1.13709   1.16152
 Alpha virt. eigenvalues --    1.16619   1.16903   1.17406   1.18410   1.18927
 Alpha virt. eigenvalues --    1.20019   1.20949   1.22378   1.23365   1.24576
 Alpha virt. eigenvalues --    1.25894   1.26890   1.27259   1.29304   1.30168
 Alpha virt. eigenvalues --    1.30875   1.31778   1.32464   1.32693   1.34078
 Alpha virt. eigenvalues --    1.34971   1.35232   1.36111   1.36770   1.38173
 Alpha virt. eigenvalues --    1.38606   1.39428   1.40138   1.42839   1.43309
 Alpha virt. eigenvalues --    1.44045   1.45007   1.45635   1.47516   1.47802
 Alpha virt. eigenvalues --    1.48742   1.49371   1.50870   1.52000   1.52518
 Alpha virt. eigenvalues --    1.53347   1.54742   1.55172   1.56939   1.57691
 Alpha virt. eigenvalues --    1.58965   1.60457   1.60773   1.62380   1.62906
 Alpha virt. eigenvalues --    1.63960   1.65146   1.65699   1.66816   1.67678
 Alpha virt. eigenvalues --    1.67810   1.68524   1.69000   1.69812   1.71453
 Alpha virt. eigenvalues --    1.71951   1.72452   1.73150   1.73378   1.74507
 Alpha virt. eigenvalues --    1.74858   1.75967   1.76999   1.78064   1.79004
 Alpha virt. eigenvalues --    1.79650   1.80577   1.81802   1.82490   1.83360
 Alpha virt. eigenvalues --    1.84105   1.84759   1.86084   1.86477   1.87120
 Alpha virt. eigenvalues --    1.88562   1.88670   1.89390   1.90222   1.90874
 Alpha virt. eigenvalues --    1.92208   1.92579   1.93251   1.94671   1.95183
 Alpha virt. eigenvalues --    1.96142   1.97577   1.98123   1.99815   2.00376
 Alpha virt. eigenvalues --    2.00614   2.01693   2.02974   2.03916   2.06201
 Alpha virt. eigenvalues --    2.06490   2.07050   2.08276   2.09127   2.09569
 Alpha virt. eigenvalues --    2.11516   2.12114   2.12374   2.14070   2.14299
 Alpha virt. eigenvalues --    2.14867   2.16131   2.16414   2.17122   2.17334
 Alpha virt. eigenvalues --    2.18217   2.20206   2.20763   2.21903   2.23208
 Alpha virt. eigenvalues --    2.23813   2.25263   2.26561   2.27326   2.28495
 Alpha virt. eigenvalues --    2.29775   2.29933   2.31225   2.32954   2.33484
 Alpha virt. eigenvalues --    2.34534   2.36207   2.37668   2.39867   2.41473
 Alpha virt. eigenvalues --    2.41802   2.43810   2.44849   2.45355   2.45593
 Alpha virt. eigenvalues --    2.47811   2.49222   2.50138   2.51696   2.52527
 Alpha virt. eigenvalues --    2.52592   2.54934   2.55753   2.56418   2.57308
 Alpha virt. eigenvalues --    2.58816   2.59701   2.60929   2.61562   2.63886
 Alpha virt. eigenvalues --    2.65311   2.66231   2.68331   2.69160   2.70006
 Alpha virt. eigenvalues --    2.71462   2.72070   2.73838   2.74856   2.76657
 Alpha virt. eigenvalues --    2.78171   2.78898   2.79514   2.81332   2.82432
 Alpha virt. eigenvalues --    2.83700   2.84921   2.86942   2.88553   2.90571
 Alpha virt. eigenvalues --    2.93287   2.96482   3.02274   3.04256   3.13736
 Alpha virt. eigenvalues --    3.14293   3.16080   3.24032   3.27077   3.28697
 Alpha virt. eigenvalues --    3.29700   3.34421   3.36251   3.37409   3.39390
 Alpha virt. eigenvalues --    3.43814   3.44679   3.44877   3.51722   3.53910
 Alpha virt. eigenvalues --    3.60960   3.63932   3.67527   3.70650   3.87509
 Alpha virt. eigenvalues --    3.90220   3.98161   4.10641   4.26940   4.88925
          Condensed to atoms (all electrons):
               1          2          3          4          5          6
     1  C    7.063384  -0.734987  -0.441681   0.320898  -0.654291   0.259456
     2  C   -0.734987  19.558751  -2.227389  -0.214929  -0.893278  -5.190999
     3  N   -0.441681  -2.227389   8.889096   0.116973   0.145639   0.753860
     4  C    0.320898  -0.214929   0.116973   5.663422   0.116696  -0.226498
     5  C   -0.654291  -0.893278   0.145639   0.116696   6.085371   0.560785
     6  C    0.259456  -5.190999   0.753860  -0.226498   0.560785  23.214380
     7  C   -0.661097  -1.798914   0.051473  -0.216395   0.146311  -7.349966
     8  N    0.026187   0.421238  -0.058601   0.017763  -0.012881   0.372033
     9  C   -0.137236  -0.920438   0.063532  -0.059025  -0.009060  -0.392459
    10  C    0.276944   0.139312  -0.162081   0.080730   0.064509   1.397774
    11  C   -0.189476  -0.816538   0.407622  -0.109581  -0.357886  -8.378023
    12  C   -0.066361  -0.360000   0.423779  -0.209430   0.003916   0.197344
    13  H    0.378556  -2.145579  -0.145862  -0.122786   0.063534   0.433337
    14  H   -0.319225   0.055646   0.033529   0.071516   0.275840  -0.523847
    15  H   -0.709409   0.197478   0.146823  -0.150313   0.239401   0.205590
    16  H    0.104987  -0.065135   0.092023  -0.030307  -0.206925   0.069409
    17  H    0.328490  -0.002684  -0.031395   0.123823  -0.324108  -0.047380
    18  H   -0.129968  -0.275431   0.455147  -0.277594   0.067356   0.180031
    19  H    0.131943   0.551634  -0.700398  -0.101111  -0.044264  -0.227096
    20  H    0.062175   0.087533  -0.230113   0.032283   0.009516   0.136839
    21  H    0.005128   0.016611   0.003517  -0.001204  -0.000577   0.225309
    22  H   -0.029877  -0.073151   0.006888  -0.005092   0.006720  -0.758974
    23  H    0.158076   0.055772   0.057604   0.016454   0.000045   0.097921
    24  H    0.127863   0.189803  -0.177558  -0.073995  -0.069077   0.051443
    25  H   -0.026324  -0.278567   0.222819   0.012372   0.058869  -0.001226
    26  H   -0.056761  -0.062773  -0.260144   0.029692   0.048825   0.121155
    27  H   -0.009885   0.018484  -0.004120   0.001343   0.005197  -0.374144
    28  O   -0.002090  -0.001436   0.000425   0.000179  -0.000148  -0.139713
    29  H    0.001141   0.002284   0.000107   0.000122  -0.000162   0.017908
    30  H   -0.000589   0.005194  -0.000215   0.000080  -0.000104  -0.006262
    31  O    0.000164  -0.000049  -0.000001  -0.000001   0.000006   0.002763
    32  H    0.000043   0.000029  -0.000007   0.000001   0.000000   0.000810
    33  H    0.000025  -0.000055   0.000003  -0.000002   0.000004   0.000158
    34  O    0.000032   0.000695   0.000002   0.000007  -0.000001   0.001864
    35  H   -0.000015   0.000238  -0.000011   0.000007  -0.000002   0.000004
    36  H   -0.000013  -0.000018   0.000002  -0.000004   0.000005   0.000568
               7          8          9         10         11         12
     1  C   -0.661097   0.026187  -0.137236   0.276944  -0.189476  -0.066361
     2  C   -1.798914   0.421238  -0.920438   0.139312  -0.816538  -0.360000
     3  N    0.051473  -0.058601   0.063532  -0.162081   0.407622   0.423779
     4  C   -0.216395   0.017763  -0.059025   0.080730  -0.109581  -0.209430
     5  C    0.146311  -0.012881  -0.009060   0.064509  -0.357886   0.003916
     6  C   -7.349966   0.372033  -0.392459   1.397774  -8.378023   0.197344
     7  C   18.750836  -0.953873  -0.708156  -1.382121  -0.911436  -0.030244
     8  N   -0.953873   7.446607   0.048220   0.413495  -0.538346  -0.015701
     9  C   -0.708156   0.048220  10.414882  -3.130008   1.055585   0.010122
    10  C   -1.382121   0.413495  -3.130008  13.859801  -5.668675  -0.006282
    11  C   -0.911436  -0.538346   1.055585  -5.668675  21.800572  -0.043202
    12  C   -0.030244  -0.015701   0.010122  -0.006282  -0.043202   4.476253
    13  H    0.420977  -0.011426   0.044455  -0.081679  -0.028805   0.056408
    14  H    0.125850   0.019712  -0.024484  -0.017044   0.095945   0.019163
    15  H   -0.026570  -0.012018   0.003395   0.033558  -0.047501   0.013245
    16  H    0.016643  -0.001948   0.002844   0.013386   0.011286  -0.016292
    17  H    0.003016  -0.000470   0.000691  -0.005546   0.000198   0.014942
    18  H    0.016853  -0.000020  -0.000423   0.004327   0.024750  -0.017785
    19  H   -0.017322   0.001852  -0.003391   0.000945  -0.008589  -0.009736
    20  H    0.194916  -0.021873  -0.218945   1.104338  -2.384686  -0.031818
    21  H    0.019322   0.000185  -0.898435   0.321246   0.074947   0.002800
    22  H    0.704371   0.008058  -0.414012  -0.155234  -0.016124  -0.001410
    23  H   -1.009336   0.078566  -0.039554   0.049377   0.010569   0.004603
    24  H   -0.218638   0.022908  -0.010715   0.053928  -0.039840   0.258043
    25  H    0.085229  -0.009216   0.002735   0.000644   0.024334   0.138681
    26  H    0.024426  -0.003045   0.004426  -0.003042  -0.041228   0.355177
    27  H    0.048055  -0.040513   0.539296  -1.332831   0.864124  -0.007865
    28  O    0.137857  -0.212062  -0.002142  -0.047798   0.047913  -0.000430
    29  H   -0.017767   0.009172   0.006541   0.006502   0.002665  -0.000277
    30  H   -0.000282   0.002468  -0.009757   0.002706   0.009354  -0.000000
    31  O   -0.002698  -0.000249   0.004226   0.001032  -0.000502  -0.000000
    32  H   -0.002621   0.000864   0.000175   0.000368  -0.000421  -0.000001
    33  H    0.000880   0.000174  -0.001184  -0.000093  -0.000244   0.000001
    34  O    0.003436  -0.006832   0.003579   0.002323   0.000119  -0.000023
    35  H    0.000266   0.000257  -0.000217   0.000228  -0.000267  -0.000003
    36  H   -0.000150   0.000671  -0.000001   0.000386  -0.000368   0.000021
              13         14         15         16         17         18
     1  C    0.378556  -0.319225  -0.709409   0.104987   0.328490  -0.129968
     2  C   -2.145579   0.055646   0.197478  -0.065135  -0.002684  -0.275431
     3  N   -0.145862   0.033529   0.146823   0.092023  -0.031395   0.455147
     4  C   -0.122786   0.071516  -0.150313  -0.030307   0.123823  -0.277594
     5  C    0.063534   0.275840   0.239401  -0.206925  -0.324108   0.067356
     6  C    0.433337  -0.523847   0.205590   0.069409  -0.047380   0.180031
     7  C    0.420977   0.125850  -0.026570   0.016643   0.003016   0.016853
     8  N   -0.011426   0.019712  -0.012018  -0.001948  -0.000470  -0.000020
     9  C    0.044455  -0.024484   0.003395   0.002844   0.000691  -0.000423
    10  C   -0.081679  -0.017044   0.033558   0.013386  -0.005546   0.004327
    11  C   -0.028805   0.095945  -0.047501   0.011286   0.000198   0.024750
    12  C    0.056408   0.019163   0.013245  -0.016292   0.014942  -0.017785
    13  H    3.115655   0.134468  -0.290439  -0.047122   0.041223  -0.075590
    14  H    0.134468   2.213148  -0.488243  -0.344642   0.134781  -0.038824
    15  H   -0.290439  -0.488243   2.332607   0.189896  -0.300174   0.059836
    16  H   -0.047122  -0.344642   0.189896   2.068854  -0.447608   0.168684
    17  H    0.041223   0.134781  -0.300174  -0.447608   1.911868  -0.197220
    18  H   -0.075590  -0.038824   0.059836   0.168684  -0.197220   1.848758
    19  H    0.049461   0.018356  -0.024355  -0.256518   0.070488  -0.435198
    20  H    0.009607  -0.017432  -0.000907   0.008300   0.004861   0.001776
    21  H    0.000306  -0.001442   0.001317   0.000209  -0.000002   0.000127
    22  H    0.001511  -0.003964   0.004413   0.001217  -0.000070   0.000271
    23  H   -0.081469   0.017127   0.002322   0.000492   0.000591   0.003802
    24  H    0.029259   0.008180  -0.003423  -0.007671  -0.000613  -0.004000
    25  H    0.045504   0.001021   0.000947  -0.000842   0.007277   0.003030
    26  H    0.003165  -0.002012   0.000900   0.007248  -0.002566  -0.001138
    27  H    0.003755  -0.001977  -0.001049   0.000450  -0.000421  -0.000098
    28  O    0.000905   0.000122  -0.000145  -0.000015   0.000002  -0.000030
    29  H    0.000235   0.000224  -0.000060  -0.000024   0.000002   0.000004
    30  H    0.000268   0.000259  -0.000144  -0.000029   0.000009  -0.000025
    31  O   -0.000049   0.000027   0.000009  -0.000001   0.000000   0.000000
    32  H    0.000005  -0.000007   0.000005  -0.000000   0.000000   0.000000
    33  H   -0.000024  -0.000003   0.000002   0.000001  -0.000000   0.000000
    34  O    0.000094   0.000020  -0.000000  -0.000001   0.000000  -0.000001
    35  H   -0.000015   0.000002   0.000000  -0.000000   0.000000  -0.000000
    36  H    0.000003  -0.000005   0.000004   0.000001  -0.000000   0.000000
              19         20         21         22         23         24
     1  C    0.131943   0.062175   0.005128  -0.029877   0.158076   0.127863
     2  C    0.551634   0.087533   0.016611  -0.073151   0.055772   0.189803
     3  N   -0.700398  -0.230113   0.003517   0.006888   0.057604  -0.177558
     4  C   -0.101111   0.032283  -0.001204  -0.005092   0.016454  -0.073995
     5  C   -0.044264   0.009516  -0.000577   0.006720   0.000045  -0.069077
     6  C   -0.227096   0.136839   0.225309  -0.758974   0.097921   0.051443
     7  C   -0.017322   0.194916   0.019322   0.704371  -1.009336  -0.218638
     8  N    0.001852  -0.021873   0.000185   0.008058   0.078566   0.022908
     9  C   -0.003391  -0.218945  -0.898435  -0.414012  -0.039554  -0.010715
    10  C    0.000945   1.104338   0.321246  -0.155234   0.049377   0.053928
    11  C   -0.008589  -2.384686   0.074947  -0.016124   0.010569  -0.039840
    12  C   -0.009736  -0.031818   0.002800  -0.001410   0.004603   0.258043
    13  H    0.049461   0.009607   0.000306   0.001511  -0.081469   0.029259
    14  H    0.018356  -0.017432  -0.001442  -0.003964   0.017127   0.008180
    15  H   -0.024355  -0.000907   0.001317   0.004413   0.002322  -0.003423
    16  H   -0.256518   0.008300   0.000209   0.001217   0.000492  -0.007671
    17  H    0.070488   0.004861  -0.000002  -0.000070   0.000591  -0.000613
    18  H   -0.435198   0.001776   0.000127   0.000271   0.003802  -0.004000
    19  H    2.495720   0.012452  -0.000134  -0.000693  -0.001068   0.007826
    20  H    0.012452   3.335027  -0.016058   0.023324  -0.022297   0.021197
    21  H   -0.000134  -0.016058   2.168643  -0.165116   0.006097  -0.000201
    22  H   -0.000693   0.023324  -0.165116   1.840233  -0.074039  -0.006435
    23  H   -0.001068  -0.022297   0.006097  -0.074039   2.488007   0.007046
    24  H    0.007826   0.021197  -0.000201  -0.006435   0.007046   2.123882
    25  H    0.006111   0.004204   0.000047   0.003115   0.001714  -0.405787
    26  H    0.014234  -0.003305   0.000328   0.000164   0.001221  -0.546587
    27  H   -0.000668  -0.131112  -0.124293   0.013019  -0.001613   0.000827
    28  O    0.000010   0.001118  -0.004610   0.087221   0.003588  -0.000135
    29  H    0.000012  -0.000061   0.006401  -0.050992   0.003380   0.000272
    30  H    0.000013  -0.000191   0.003713  -0.010696   0.002445   0.000034
    31  O   -0.000000  -0.000015   0.001318  -0.006935   0.001118   0.000009
    32  H    0.000000  -0.000006  -0.000030   0.003551  -0.000319   0.000001
    33  H   -0.000000  -0.000002  -0.000030   0.002215   0.000076  -0.000001
    34  O    0.000001  -0.000007   0.000667  -0.019650   0.001301   0.000104
    35  H    0.000001  -0.000009  -0.000289  -0.002428   0.000125   0.000000
    36  H   -0.000000  -0.000008   0.000208  -0.002323  -0.000441   0.000005
              25         26         27         28         29         30
     1  C   -0.026324  -0.056761  -0.009885  -0.002090   0.001141  -0.000589
     2  C   -0.278567  -0.062773   0.018484  -0.001436   0.002284   0.005194
     3  N    0.222819  -0.260144  -0.004120   0.000425   0.000107  -0.000215
     4  C    0.012372   0.029692   0.001343   0.000179   0.000122   0.000080
     5  C    0.058869   0.048825   0.005197  -0.000148  -0.000162  -0.000104
     6  C   -0.001226   0.121155  -0.374144  -0.139713   0.017908  -0.006262
     7  C    0.085229   0.024426   0.048055   0.137857  -0.017767  -0.000282
     8  N   -0.009216  -0.003045  -0.040513  -0.212062   0.009172   0.002468
     9  C    0.002735   0.004426   0.539296  -0.002142   0.006541  -0.009757
    10  C    0.000644  -0.003042  -1.332831  -0.047798   0.006502   0.002706
    11  C    0.024334  -0.041228   0.864124   0.047913   0.002665   0.009354
    12  C    0.138681   0.355177  -0.007865  -0.000430  -0.000277  -0.000000
    13  H    0.045504   0.003165   0.003755   0.000905   0.000235   0.000268
    14  H    0.001021  -0.002012  -0.001977   0.000122   0.000224   0.000259
    15  H    0.000947   0.000900  -0.001049  -0.000145  -0.000060  -0.000144
    16  H   -0.000842   0.007248   0.000450  -0.000015  -0.000024  -0.000029
    17  H    0.007277  -0.002566  -0.000421   0.000002   0.000002   0.000009
    18  H    0.003030  -0.001138  -0.000098  -0.000030   0.000004  -0.000025
    19  H    0.006111   0.014234  -0.000668   0.000010   0.000012   0.000013
    20  H    0.004204  -0.003305  -0.131112   0.001118  -0.000061  -0.000191
    21  H    0.000047   0.000328  -0.124293  -0.004610   0.006401   0.003713
    22  H    0.003115   0.000164   0.013019   0.087221  -0.050992  -0.010696
    23  H    0.001714   0.001221  -0.001613   0.003588   0.003380   0.002445
    24  H   -0.405787  -0.546587   0.000827  -0.000135   0.000272   0.000034
    25  H    1.549803  -0.276397  -0.001472   0.000057  -0.000074  -0.000009
    26  H   -0.276397   1.882048   0.000331  -0.000041  -0.000025  -0.000015
    27  H   -0.001472   0.000331   2.124349  -0.001122   0.000011  -0.000097
    28  O    0.000057  -0.000041  -0.001122   7.974770   0.341004   0.344588
    29  H   -0.000074  -0.000025   0.000011   0.341004   0.654709  -0.161350
    30  H   -0.000009  -0.000015  -0.000097   0.344588  -0.161350   0.603117
    31  O    0.000000   0.000000  -0.000006  -0.043157   0.004320  -0.021383
    32  H   -0.000001  -0.000000   0.000006   0.001670  -0.002695  -0.000359
    33  H    0.000001   0.000000   0.000006   0.002051  -0.002015  -0.001088
    34  O   -0.000012  -0.000004   0.000007  -0.038266  -0.002518   0.009856
    35  H    0.000001  -0.000000   0.000006   0.001949   0.000210  -0.000145
    36  H    0.000001   0.000001   0.000002   0.002001   0.000120   0.000186
              31         32         33         34         35         36
     1  C    0.000164   0.000043   0.000025   0.000032  -0.000015  -0.000013
     2  C   -0.000049   0.000029  -0.000055   0.000695   0.000238  -0.000018
     3  N   -0.000001  -0.000007   0.000003   0.000002  -0.000011   0.000002
     4  C   -0.000001   0.000001  -0.000002   0.000007   0.000007  -0.000004
     5  C    0.000006   0.000000   0.000004  -0.000001  -0.000002   0.000005
     6  C    0.002763   0.000810   0.000158   0.001864   0.000004   0.000568
     7  C   -0.002698  -0.002621   0.000880   0.003436   0.000266  -0.000150
     8  N   -0.000249   0.000864   0.000174  -0.006832   0.000257   0.000671
     9  C    0.004226   0.000175  -0.001184   0.003579  -0.000217  -0.000001
    10  C    0.001032   0.000368  -0.000093   0.002323   0.000228   0.000386
    11  C   -0.000502  -0.000421  -0.000244   0.000119  -0.000267  -0.000368
    12  C   -0.000000  -0.000001   0.000001  -0.000023  -0.000003   0.000021
    13  H   -0.000049   0.000005  -0.000024   0.000094  -0.000015   0.000003
    14  H    0.000027  -0.000007  -0.000003   0.000020   0.000002  -0.000005
    15  H    0.000009   0.000005   0.000002  -0.000000   0.000000   0.000004
    16  H   -0.000001  -0.000000   0.000001  -0.000001  -0.000000   0.000001
    17  H    0.000000   0.000000  -0.000000   0.000000   0.000000  -0.000000
    18  H    0.000000   0.000000   0.000000  -0.000001  -0.000000   0.000000
    19  H   -0.000000   0.000000  -0.000000   0.000001   0.000001  -0.000000
    20  H   -0.000015  -0.000006  -0.000002  -0.000007  -0.000009  -0.000008
    21  H    0.001318  -0.000030  -0.000030   0.000667  -0.000289   0.000208
    22  H   -0.006935   0.003551   0.002215  -0.019650  -0.002428  -0.002323
    23  H    0.001118  -0.000319   0.000076   0.001301   0.000125  -0.000441
    24  H    0.000009   0.000001  -0.000001   0.000104   0.000000   0.000005
    25  H    0.000000  -0.000001   0.000001  -0.000012   0.000001   0.000001
    26  H    0.000000  -0.000000   0.000000  -0.000004  -0.000000   0.000001
    27  H   -0.000006   0.000006   0.000006   0.000007   0.000006   0.000002
    28  O   -0.043157   0.001670   0.002051  -0.038266   0.001949   0.002001
    29  H    0.004320  -0.002695  -0.002015  -0.002518   0.000210   0.000120
    30  H   -0.021383  -0.000359  -0.001088   0.009856  -0.000145   0.000186
    31  O    7.695026   0.353326   0.353007  -0.000390  -0.000048   0.000076
    32  H    0.353326   0.567376  -0.073856  -0.000125  -0.000058   0.000076
    33  H    0.353007  -0.073856   0.569205  -0.000110   0.000048  -0.000049
    34  O   -0.000390  -0.000125  -0.000110   7.700884   0.344714   0.343897
    35  H   -0.000048  -0.000058   0.000048   0.344714   0.573031  -0.075169
    36  H    0.000076   0.000076  -0.000049   0.343897  -0.075169   0.559489
 Mulliken charges:
               1
     1  C    0.923793
     2  C    0.761648
     3  N   -0.431287
     4  C    1.193905
     5  C    0.674215
     6  C    1.315842
     7  C    0.556869
     8  N    0.008644
     9  C    0.774940
    10  C    0.164578
    11  C    1.151755
    12  C    0.842363
    13  H   -0.801848
    14  H   -0.441784
    15  H   -0.376996
    16  H   -0.330849
    17  H   -0.282008
    18  H   -0.381409
    19  H   -0.530516
    20  H   -0.970620
    21  H   -0.646022
    22  H    0.090927
    23  H   -0.839300
    24  H   -0.337952
    25  H   -0.168588
    26  H   -0.234259
    27  H   -0.585985
    28  O   -0.454091
    29  H    0.180673
    30  H    0.228448
    31  O   -0.340944
    32  H    0.152201
    33  H    0.150899
    34  O   -0.345661
    35  H    0.157589
    36  H    0.170827
 Sum of Mulliken charges =   1.00000
 Mulliken charges with hydrogens summed into heavy atoms:
               1
     1  C    0.105013
     2  C   -0.040199
     3  N   -0.431287
     4  C    0.281980
     5  C    0.061358
     6  C    1.315842
     7  C   -0.282430
     8  N    0.099571
     9  C    0.128918
    10  C   -0.421407
    11  C    0.181135
    12  C    0.101565
    28  O   -0.044970
    31  O   -0.037843
    34  O   -0.017245
 Electronic spatial extent (au):  <R**2>=           6230.8326
 Charge=              1.0000 electrons
 Dipole moment (field-independent basis, Debye):
    X=              7.1198    Y=             -0.5968    Z=              0.6485  Tot=              7.1741
 Quadrupole moment (field-independent basis, Debye-Ang):
   XX=            -14.8386   YY=            -67.7882   ZZ=            -70.4773
   XY=              0.9282   XZ=             -3.7572   YZ=             -1.0738
 Traceless Quadrupole moment (field-independent basis, Debye-Ang):
   XX=             36.1961   YY=            -16.7535   ZZ=            -19.4426
   XY=              0.9282   XZ=             -3.7572   YZ=             -1.0738
 Octapole moment (field-independent basis, Debye-Ang**2):
  XXX=            347.0956  YYY=             -6.7963  ZZZ=             13.6668  XYY=            133.2668
  XXY=             36.9666  XXZ=            -51.5616  XZZ=             56.3383  YZZ=            -10.8310
  YYZ=            -31.0035  XYZ=              8.4773
 Hexadecapole moment (field-independent basis, Debye-Ang**3):
 XXXX=          -3561.6723 YYYY=           -758.2704 ZZZZ=           -640.9402 XXXY=            338.9351
 XXXZ=           -185.4840 YYYX=             13.4560 YYYZ=             16.6231 ZZZX=           -111.9689
 ZZZY=             -2.0420 XXYY=           -370.5956 XXZZ=           -909.4953 YYZZ=           -237.0837
 XXYZ=             43.0487 YYXZ=           -133.6708 ZZXY=            -29.7800
 N-N= 1.010104539384D+03 E-N=-3.704835578244D+03  KE= 7.239935805675D+02
 Calling FoFJK, ICntrl=      2127 FMM=F ISym2X=0 I1Cent= 0 IOpClX= 0 NMat=1 NMatS=1 NMatT=0.
 ***** Axes restored to original set *****
 -------------------------------------------------------------------
 Center     Atomic                   Forces (Hartrees/Bohr)
 Number     Number              X              Y              Z
 -------------------------------------------------------------------
      1        6          -0.000149936    0.000033616    0.000089400
      2        6           0.000346345    0.000012944   -0.000294752
      3        7          -0.000272086   -0.000006252    0.000193112
      4        6           0.000051130    0.000155926    0.000023338
      5        6           0.000076376   -0.000044868   -0.000002061
      6        6          -0.000096466    0.000246658   -0.000148202
      7        6           0.000659480    0.000609157   -0.000323506
      8        7          -0.002624733    0.000807278   -0.000892519
      9        6          -0.000151200   -0.000808031    0.000539666
     10        6          -0.000229234    0.000052972   -0.000072662
     11        6          -0.000058356   -0.000098320    0.000047624
     12        6          -0.000018013   -0.000042178   -0.000201081
     13        1          -0.000042677   -0.000007677   -0.000003089
     14        1           0.000010416    0.000005060    0.000062412
     15        1          -0.000003657    0.000011161   -0.000010337
     16        1          -0.000017033    0.000011622   -0.000003906
     17        1          -0.000032091   -0.000019078    0.000004154
     18        1          -0.000014104   -0.000059743    0.000046313
     19        1          -0.000044430    0.000003178    0.000002338
     20        1           0.000067505    0.000030129   -0.000043104
     21        1           0.000106151   -0.000209553    0.000052048
     22        1           0.005791205   -0.001927028    0.002143329
     23        1           0.000257392    0.000030333   -0.000030011
     24        1           0.000021214   -0.000036362   -0.000046075
     25        1           0.000005639   -0.000054043    0.000049398
     26        1          -0.000044468    0.000002782    0.000009786
     27        1          -0.000073538   -0.000012637   -0.000034254
     28        8          -0.005673438   -0.005087556   -0.013352035
     29        1           0.004126632    0.004295987    0.011798532
     30        1          -0.003348567    0.002510047    0.001206744
     31        8           0.000981290   -0.001331257   -0.001339732
     32        1           0.000115676    0.000374353    0.000035533
     33        1          -0.000122050   -0.000113688    0.000366182
     34        8          -0.003478090    0.011999584    0.012644850
     35        1           0.001362250   -0.009951625   -0.002550268
     36        1           0.002515468   -0.001382890   -0.009967165
 -------------------------------------------------------------------
 Cartesian Forces:  Max     0.013352035 RMS     0.003071126

 GradGradGradGradGradGradGradGradGradGradGradGradGradGradGradGradGradGrad
 Berny optimization.
 FormGI is forming the generalized inverse of G from B-inverse, IUseBI=4.
 Internal  Forces:  Max     0.013625083 RMS     0.001517794
 Search for a local minimum.
 Step number   1 out of a maximum of  200
 All quantities printed in internal units (Hartrees-Bohrs-Radians)
 Mixed Optimization -- RFO/linear search
 Second derivative matrix not updated -- first step.
 ITU=  0
     Eigenvalues ---    0.00230   0.00230   0.00230   0.00230   0.00230
     Eigenvalues ---    0.00230   0.00230   0.00230   0.00230   0.00233
     Eigenvalues ---    0.00336   0.00630   0.00922   0.01013   0.01080
     Eigenvalues ---    0.01545   0.01916   0.02130   0.02171   0.02226
     Eigenvalues ---    0.02242   0.02293   0.02349   0.02375   0.02434
     Eigenvalues ---    0.02493   0.02580   0.03518   0.04557   0.04825
     Eigenvalues ---    0.05025   0.05215   0.05539   0.05959   0.05990
     Eigenvalues ---    0.06370   0.06838   0.06950   0.06957   0.06988
     Eigenvalues ---    0.07271   0.07586   0.08367   0.08582   0.09408
     Eigenvalues ---    0.10408   0.12963   0.15844   0.15977   0.15994
     Eigenvalues ---    0.15998   0.16000   0.16000   0.16000   0.16000
     Eigenvalues ---    0.16000   0.16000   0.16000   0.16000   0.16000
     Eigenvalues ---    0.16000   0.16000   0.18445   0.20636   0.22000
     Eigenvalues ---    0.22000   0.23455   0.24990   0.26448   0.26728
     Eigenvalues ---    0.28874   0.31324   0.32520   0.32705   0.32777
     Eigenvalues ---    0.33873   0.34068   0.34097   0.34129   0.34150
     Eigenvalues ---    0.34160   0.34262   0.34749   0.34807   0.35024
     Eigenvalues ---    0.35103   0.35140   0.35640   0.38076   0.40041
     Eigenvalues ---    0.43054   0.43746   0.46875   0.48259   0.51464
     Eigenvalues ---    0.52875   0.52992   0.54032   0.55224   0.55227
     Eigenvalues ---    0.55543   0.56075
 RFO step:  Lambda=-2.24796609D-03 EMin= 2.30000000D-03
 Linear search not attempted -- first point.
 Maximum step size (   0.300) exceeded in Quadratic search.
    -- Step size scaled by   0.725
 Iteration  1 RMS(Cart)=  0.11654660 RMS(Int)=  0.00990091
 Iteration  2 RMS(Cart)=  0.04345529 RMS(Int)=  0.00123854
 Iteration  3 RMS(Cart)=  0.00227332 RMS(Int)=  0.00058707
 Iteration  4 RMS(Cart)=  0.00001045 RMS(Int)=  0.00058706
 Iteration  5 RMS(Cart)=  0.00000006 RMS(Int)=  0.00058706
 Variable       Old X    -DE/DX   Delta X   Delta X   Delta X     New X
                                 (Linear)    (Quad)   (Total)
    R1        2.93171  -0.00006   0.00000  -0.00019  -0.00019   2.93152
    R2        2.92194  -0.00000   0.00000  -0.00001  -0.00002   2.92193
    R3        2.07215  -0.00005   0.00000  -0.00010  -0.00010   2.07205
    R4        2.07078  -0.00001   0.00000  -0.00003  -0.00003   2.07074
    R5        2.74729   0.00023   0.00000   0.00043   0.00045   2.74775
    R6        2.85399   0.00010   0.00000   0.00022   0.00016   2.85415
    R7        2.09903  -0.00001   0.00000  -0.00002  -0.00002   2.09902
    R8        2.76096  -0.00008   0.00000  -0.00016  -0.00015   2.76081
    R9        2.74254  -0.00023   0.00000  -0.00043  -0.00042   2.74212
   R10        2.88688  -0.00000   0.00000   0.00003   0.00003   2.88690
   R11        2.09572   0.00007   0.00000   0.00016   0.00016   2.09588
   R12        2.07166   0.00004   0.00000   0.00008   0.00008   2.07174
   R13        2.07060   0.00001   0.00000   0.00003   0.00003   2.07063
   R14        2.06889   0.00003   0.00000   0.00006   0.00006   2.06896
   R15        2.61684   0.00032   0.00000   0.00048   0.00054   2.61738
   R16        2.64757  -0.00023   0.00000  -0.00029  -0.00030   2.64727
   R17        2.54101  -0.00096   0.00000  -0.00130  -0.00130   2.53971
   R18        2.05636   0.00000   0.00000   0.00001   0.00001   2.05637
   R19        2.53328  -0.00088   0.00000  -0.00117  -0.00115   2.53212
   R20        1.98197   0.00255   0.00000   0.00460   0.00461   1.98658
   R21        2.61643   0.00031   0.00000   0.00047   0.00043   2.61685
   R22        2.05448  -0.00002   0.00000  -0.00004  -0.00004   2.05444
   R23        2.63084  -0.00017   0.00000  -0.00020  -0.00026   2.63058
   R24        2.05508   0.00001   0.00000   0.00003   0.00003   2.05511
   R25        2.05990  -0.00004   0.00000  -0.00008  -0.00008   2.05982
   R26        2.07544  -0.00001   0.00000  -0.00001   0.00004   2.07549
   R27        2.09445   0.00007   0.00000   0.00016   0.00016   2.09461
   R28        2.07113   0.00004   0.00000   0.00008   0.00008   2.07121
   R29        3.07569  -0.00391   0.00000  -0.03222  -0.03220   3.04349
   R30        1.81351   0.01363   0.00000   0.01771   0.01771   1.83122
   R31        1.85116  -0.00255   0.00000  -0.00358  -0.00358   1.84758
[...]
 00000578,0.00001801,-0.00000137,-0.00000630,-0.00001063,0.00001026,0.0
 0000736,-0.00000060,0.00000500,0.00004035,-0.00002300,-0.00000705,0.00
 611706,-0.00661401,-0.00001497,0.00025510,0.00053757,0.00094144,0.0005
 5044,0.00291485,-0.00620082,-0.22537562,-0.21025591,0.20035170,-0.0000
 0625,0.00002585,-0.00000039,-0.00003126,0.00003372,-0.00001646,0.00002
 693,-0.00003773,-0.00000745,-0.00000364,-0.00000300,0.00000027,-0.0000
 1029,-0.00000767,-0.00000626,0.00001169,-0.00006750,0.00005148,-0.0000
 4652,0.00009486,-0.00007952,-0.00010978,0.00004877,-0.00008844,0.00004
 862,-0.00002082,0.00003118,-0.00006179,-0.00001489,-0.00000191,0.00001
 711,0.00004753,-0.00002524,0.00000495,0.00001711,0.00001206,-0.0000002
 6,-0.00000722,0.00001962,-0.00000324,0.00000648,-0.00000670,-0.0000082
 2,-0.00002153,0.00000641,0.00000528,-0.00000331,0.00000194,-0.00000221
 ,0.00000192,-0.00000180,-0.00000184,0.00000256,-0.00000041,0.00000583,
 -0.00000485,-0.00000191,-0.00000159,-0.00000036,0.00000250,0.00001563,
 -0.00001155,0.00001023,0.00035378,0.00003444,0.00014101,-0.00004253,0.
 00003569,0.00004492,-0.00000416,0.00000208,0.00000109,-0.00000289,-0.0
 0000006,-0.00000253,0.00000630,-0.00000291,-0.00000023,-0.00000133,0.0
 0000299,0.00000135,-0.00137482,0.00044354,0.00154392,-0.00022137,0.000
 10839,0.00003734,0.00219234,-0.00017264,-0.00343436,-0.05609271,0.1185
 2474,-0.01291505,0.05085783,-0.00001652,0.00002282,0.00000812,0.000021
 73,0.00002050,-0.00003552,-0.00002889,-0.00003761,0.00000665,0.0000156
 2,0.00002273,0.00000289,0.00000357,-0.00000803,-0.00000425,0.00002687,
 0.00000941,0.00000733,0.00002694,0.00006541,-0.00004104,-0.00020113,0.
 00005720,-0.00008024,0.00003192,-0.00006591,0.00005163,-0.00005346,-0.
 00001017,-0.00000441,0.00000837,0.00000944,-0.00000759,0.00000550,0.00
 001171,-0.00000917,-0.00000543,-0.00000298,0.00000933,0.00000070,0.000
 00341,0.00000526,-0.00000174,-0.00000925,0.00000339,-0.00000047,0.0000
 0060,-0.00000013,-0.00000831,-0.00000316,-0.00000029,-0.00000279,-0.00
 000635,0.00000643,-0.00000328,-0.00000158,0.00000005,0.00000396,0.0000
 0384,-0.00000136,0.00001407,-0.00001467,0.00000818,0.00044157,-0.00010
 657,0.00013874,0.00001473,0.00001800,0.00000618,-0.00000386,-0.0000073
 4,-0.00000193,0.00000061,-0.00000367,0.00000202,-0.00000222,-0.0000001
 2,-0.00000004,-0.00000081,-0.00000095,0.00000096,-0.00066411,0.0006594
 5,-0.00010452,0.00018113,-0.00020444,-0.00010628,0.00069639,-0.0017451
 9,0.00045547,0.06982300,-0.48760458,0.14207748,-0.08027022,0.50173690,
 0.00000109,-0.00000007,0.00000521,-0.00000202,-0.00001644,0.00003667,0
 .00000222,0.00000542,-0.00003599,0.00000199,-0.00000685,0.00001187,-0.
 00000350,-0.00000304,-0.00000332,-0.00001318,0.00001849,-0.00002395,-0
 .00000369,-0.00004851,0.00004838,0.00004690,-0.00003047,0.00003502,-0.
 00000619,0.00002908,-0.00001866,0.00002327,0.00000515,-0.00000386,-0.0
 0001381,-0.00000974,0.00000540,0.00000204,-0.00000084,0.00002859,0.000
 00313,0.00000473,-0.00001308,-0.00000290,0.00001020,-0.00001104,-0.000
 00285,-0.00000543,0.00001005,-0.00000063,0.00000195,-0.00000154,0.0000
 0090,-0.00000020,0.00000133,-0.00000025,0.00000308,-0.00000727,0.00000
 191,-0.00000127,-0.00000159,-0.00000405,0.00000246,0.00000381,-0.00000
 366,0.00001614,0.00001276,-0.00005228,0.00003269,-0.00004021,0.0000170
 4,-0.00000382,0.00002589,-0.00000190,-0.00000095,0.00000301,0.00000167
 ,0.00000895,-0.00000802,0.00000135,0.00000003,-0.00000295,-0.00000146,
 0.00000508,0.00000444,0.00196233,-0.00069693,-0.00203469,0.00027091,-0
 .00027499,0.00037608,-0.00307423,0.00010982,0.00322825,0.00443613,0.11
 893844,-0.04846979,0.00270497,-0.14251067,0.05278328,0.00000770,-0.000
 00216,-0.00000427,-0.00003132,0.00000193,0.00002675,0.00003278,0.00000
 184,-0.00002072,-0.00001126,-0.00001488,-0.00000013,-0.00000808,0.0000
 0203,-0.00000201,-0.00001923,-0.00001309,0.00000242,-0.00002012,-0.000
 02314,0.00002201,0.00005104,-0.00003508,0.00001408,-0.00004225,0.00002
 397,-0.00002579,0.00003276,0.00001840,-0.00001568,-0.00001207,0.000000
 78,0.00000213,-0.00000029,0.00000429,0.00002028,0.00000614,-0.00000002
 ,-0.00000033,-0.00000301,0.00000398,-0.00000948,-0.00000168,-0.0000055
 1,0.00000399,0.00000225,-0.00000181,0.00000119,0.00000370,0.00000265,-
 0.00000059,0.00000066,0.00000580,-0.00000513,0.00000619,-0.00000245,-0
 .00000117,-0.00000386,0.00000166,0.00000225,-0.00001334,0.00004937,0.0
 0001721,-0.00009504,0.00001129,0.00006152,-0.00000261,0.00000389,0.000
 00950,-0.00000163,0.00000568,0.00000347,-0.00000133,0.00000425,-0.0000
 0496,0.00000613,-0.00000160,-0.00000076,-0.00000251,0.00000765,0.00000
 206,0.00050144,0.00022229,-0.00001039,-0.00008336,0.00025300,0.0001385
 5,-0.00120391,-0.00124293,-0.00004067,-0.36044345,-0.13134823,0.232676
 89,0.00446483,0.00997919,-0.00620467,0.35689091,-0.00000770,0.00001381
 ,0.00000301,0.00000018,0.00000871,-0.00001547,-0.00000174,-0.00002353,
 0.00000406,0.00000609,0.00000838,0.00000051,-0.00000073,-0.00000389,-0
 .00000435,0.00004988,-0.00004019,0.00004054,-0.00008498,-0.00001642,-0
 .00000961,0.00018254,-0.00000765,0.00006643,0.00012478,0.00007944,-0.0
 0002805,-0.00006624,-0.00004160,0.00001751,0.00002164,0.00003884,-0.00
 002379,0.00000392,0.00000962,-0.00000148,-0.00000308,-0.00000462,0.000
 00820,-0.00000066,0.00000404,0.00000085,-0.00000168,-0.00000782,0.0000
 0370,0.00000125,-0.00000018,0.00000074,-0.00000350,-0.00000116,-0.0000
 0004,-0.00000110,-0.00000207,0.00000277,0.00000046,-0.00000154,-0.0000
 0040,-0.00000023,-0.00000008,0.00000036,0.00004185,-0.00002105,-0.0000
 1490,-0.00031333,0.00012468,-0.00021306,-0.00002393,0.00000605,0.00001
 287,-0.00000312,-0.00000180,-0.00000131,-0.00000065,-0.00000280,0.0000
 0048,0.00000129,-0.00000014,-0.00000059,0.00001551,-0.00000242,0.00000
 425,0.00134323,-0.00320236,-0.00105719,0.00046439,0.00008017,0.0000879
 6,-0.00130415,0.00561178,0.00132501,-0.08366947,-0.08656676,0.07140055
 ,-0.03879616,-0.01285688,0.02444296,0.12212555,0.09691861,-0.00000255,
 -0.00000490,0.00000950,0.00000723,-0.00000499,0.00001388,-0.00001138,-
 0.00000009,-0.00002401,0.00000560,0.00000120,0.00000882,0.00000044,-0.
 00000338,-0.00000109,-0.00002887,0.00003549,-0.00003199,0.00006686,0.0
 0001459,0.00001011,-0.00016687,0.00003689,-0.00007171,-0.00004730,-0.0
 0003799,0.00003076,0.00001756,0.00001034,-0.00002182,-0.00002049,-0.00
 002313,0.00001604,0.00000277,0.00000097,0.00001606,0.00000079,0.000004
 06,-0.00001020,-0.00000059,0.00000709,-0.00000422,-0.00000053,-0.00000
 123,0.00000438,-0.00000278,0.00000264,-0.00000186,-0.00000047,-0.00000
 117,0.00000082,-0.00000071,0.00000018,-0.00000383,-0.00000072,-0.00000
 044,-0.00000034,-0.00000238,0.00000265,0.00000358,0.00000087,0.0000195
 9,0.00004385,0.00037677,-0.00016894,0.00021339,0.00002507,0.00000337,0
 .00000620,-0.00000168,-0.00000286,0.00000199,0.00000162,0.00000548,-0.
 00000490,-0.00000072,0.,-0.00000112,-0.00001091,0.00000926,0.00000553,
 -0.00039288,-0.00049151,-0.00006205,0.00034787,0.00003415,-0.00005603,
 0.00091354,0.00101431,-0.00072088,0.21368602,0.09536475,-0.14516419,0.
 01193239,0.00009567,-0.00573294,-0.22660098,-0.09589699,0.15157223,-0.
 00002642,0.00002413,0.00002392,0.00007669,-0.00001028,-0.00001760,-0.0
 0011265,-0.00004705,-0.00004158,0.00006700,0.00004777,0.00001726,0.000
 01345,-0.00001913,-0.00000332,0.00000022,0.00012136,-0.00008371,0.0002
 1469,0.00010024,0.00000496,-0.00041653,0.00005817,-0.00014129,-0.00007
 478,-0.00019389,0.00013776,0.00000747,0.00001078,-0.00001311,-0.000007
 65,-0.00006249,0.00004979,0.00002591,0.00002806,0.00002725,-0.00000816
 ,0.00001919,-0.00001619,0.00000024,0.00000747,0.00000681,-0.00000140,-
 0.00000648,0.00000480,-0.00000691,0.00000697,-0.00000720,-0.00001292,-
 0.00001158,-0.00000026,-0.00000479,-0.00001381,0.00000853,-0.00001353,
 0.00000264,0.00000129,0.00000712,0.00000866,0.00000319,-0.00002441,-0.
 00001183,0.00005090,0.00070780,-0.00016366,0.00045362,0.00005362,0.000
 07830,0.00006048,-0.00000566,-0.00003825,0.00001414,0.00001471,0.00001
 452,-0.00001179,-0.00001583,0.00000156,-0.00000991,-0.00001705,0.00000
 174,0.00000844,0.00136239,-0.00249520,-0.00736516,-0.00380486,-0.00180
 715,0.00320589,-0.00182491,0.00049304,-0.00058208,0.00070258,-0.000099
 82,0.00013433,-0.00009442,-0.00011985,-0.00014632,-0.00008317,-0.00017
 366,-0.00025342,0.28217440,-0.00000121,-0.00001413,0.00000903,0.000075
 11,-0.00002582,0.00000302,-0.00005152,0.00005817,0.00001474,-0.0000060
 0,0.00000585,0.00001618,0.00001211,-0.00000128,0.00000362,-0.00011109,
 0.00011476,-0.00011793,0.00023788,0.00007152,-0.00003225,-0.00106411,0
 .00027722,-0.00025396,-0.00019754,-0.00023804,0.00009714,0.00003886,0.
 00009745,-0.00003899,-0.00005609,-0.00008496,0.00004328,-0.00002423,-0
 .00005624,-0.00002641,-0.00000420,0.00001228,-0.00002618,0.00000042,-0
 .00000132,0.00000693,0.00000020,0.00001554,-0.00000007,-0.00000591,0.0
 0000384,-0.00000245,-0.00000180,0.00000012,0.00000292,0.00000067,-0.00
 000430,-0.00000259,-0.00001078,0.00000300,-0.00000071,0.00000523,0.000
 00225,-0.00000910,0.00002464,-0.00007428,-0.00007689,0.00214411,-0.000
 90038,0.00061216,0.00010966,-0.00000157,0.00002264,0.00001562,-0.00000
 355,-0.00001429,0.00000558,0.00000301,0.00000664,-0.00001574,0.0000041
 4,0.00000007,-0.00003119,-0.00000363,-0.00002755,-0.00239886,0.0022424
 0,-0.00725878,-0.00148606,-0.00864271,0.00307920,-0.00055710,0.0004790
 6,0.00049416,0.00018343,-0.00013035,-0.00059974,0.00001318,0.00012860,
 0.00023885,-0.00004641,-0.00014246,0.00013561,0.27429157,0.45599661,-0
 .00005381,0.00002519,0.00005047,0.00015513,0.00007473,-0.00018567,-0.0
 0014916,-0.00005099,0.00012952,0.00003429,0.00008401,0.00000440,0.0000
 2824,-0.00002458,-0.00000673,-0.00001467,0.00006365,-0.00001644,0.0002
 9305,0.00043801,-0.00025958,-0.00188181,0.00067238,-0.00065108,0.00002
 183,-0.00046561,0.00032841,-0.00023396,0.00000462,-0.00005380,0.000015
 22,-0.00000430,-0.00001443,-0.00000537,-0.00001204,-0.00014177,-0.0000
 3111,-0.00001928,0.00001732,0.00000470,0.00000359,0.00003933,0.0000001
 6,0.00000168,-0.00000484,-0.00001030,0.00000638,0.00000039,-0.00002289
 ,-0.00000799,0.00000118,-0.00000617,-0.00003215,0.00002593,-0.00002583
 ,0.00000118,0.00000164,0.00002088,0.00000753,-0.00001427,0.00009201,-0
 .00009258,0.00008209,0.00400602,-0.00135254,0.00122728,0.00011312,-0.0
 0002030,-0.00005090,0.00000919,-0.00001763,-0.00003345,-0.00000386,-0.
 00004435,0.00003728,-0.00002325,0.00000273,0.00000926,-0.00003238,-0.0
 0000387,-0.00001477,-0.00714598,-0.00725695,-0.01179438,0.00367197,0.0
 0279235,-0.00396189,-0.00224765,0.00133125,0.00021906,0.00058257,-0.00
 081958,-0.00050648,0.00006534,0.00015132,-0.00012334,-0.00005062,0.000
 01479,0.00013511,0.08238233,-0.19814061,0.47205647,0.00001022,-0.00000
 903,-0.00001024,-0.00001438,-0.00000278,0.00001113,0.00003408,0.000027
 38,0.00001447,-0.00002513,-0.00001658,-0.00000374,-0.00000382,0.000006
 92,0.00000165,-0.00001977,-0.00001391,-0.00000175,-0.00001314,-0.00003
 146,0.00000784,0.00003344,-0.00000708,0.00003069,-0.00002594,0.0000245
 1,-0.00002582,0.00001832,0.00002323,-0.00000146,-0.00001186,-0.0000008
 8,-0.00000306,-0.00001454,-0.00001916,-0.00001128,0.00000326,-0.000002
 32,0.00000070,-0.00000102,-0.00000353,-0.00000058,0.00000059,0.0000042
 0,-0.00000161,0.00000195,-0.00000243,0.00000248,0.00000447,0.00000436,
 0.00000026,0.00000201,0.00000478,-0.00000328,0.00000360,-0.00000096,-0
 .00000080,-0.00000174,-0.00000163,-0.00000350,0.00001216,-0.00000881,-
 0.00005168,-0.00002986,-0.00008075,-0.00002285,0.00000401,-0.00000986,
 -0.00000736,0.00000601,0.00001132,-0.00000612,-0.00000287,-0.00000298,
 0.00000414,0.00000243,-0.00000041,0.00000248,0.00000084,-0.00000164,-0
 .00001077,0.00042461,0.00016860,0.00076365,-0.00103130,-0.00018378,-0.
 00053909,0.00019076,-0.00001867,-0.00024910,-0.00018026,-0.00003959,-0
 .00001416,0.00004187,0.00003061,0.00000047,0.00005177,0.00006820,0.000
 08324,-0.25321501,-0.27615404,-0.02462229,0.25330722,-0.00000157,0.000
 00507,-0.00000108,-0.00002148,0.00001383,-0.00001059,0.00001433,-0.000
 02407,0.00000321,0.00000220,0.00000237,-0.00000617,-0.00000311,-0.0000
 0014,-0.00000161,0.00004099,-0.00004703,0.00004648,-0.00009567,-0.0000
 1607,0.00000082,0.00022730,-0.00005619,0.00007471,0.00007172,0.0000769
 2,-0.00002789,-0.00002620,-0.00003461,0.00000117,0.00002382,0.00003646
 ,-0.00001809,0.00000736,0.00001924,0.00000010,0.00000067,-0.00000663,0
 .00001097,0.00000004,0.00000101,-0.00000132,-0.00000008,-0.00000519,0.
 00000017,0.00000178,-0.00000105,0.00000121,-0.00000036,-0.00000024,-0.
 00000095,-0.00000046,-0.00000017,0.00000231,0.00000331,-0.00000133,0.0
 0000033,-0.00000060,0.00000109,0.00000233,-0.00000496,0.00003536,0.000
 02707,-0.00047137,0.00020854,-0.00024336,-0.00003037,-0.00000579,-0.00
 000703,-0.00000652,0.00000311,0.00000223,-0.00000313,-0.00000556,0.000
 00056,0.00000664,-0.00000054,0.00000099,0.00001136,0.00000325,0.000011
 84,0.00066281,0.00027267,0.00078936,-0.00101070,-0.00111494,-0.0012334
 8,-0.00014274,-0.00012333,-0.00012134,0.00008268,0.00009612,0.00024527
 ,-0.00003272,-0.00006621,-0.00007806,-0.00000879,-0.00000583,-0.000132
 71,-0.25242593,-0.29144319,-0.00132349,0.27171459,0.30837131,0.0000074
 8,-0.00000528,-0.00000577,-0.00001660,-0.00000605,0.00002608,0.0000128
 9,0.00000785,-0.00002624,-0.00000279,-0.00001039,0.00000230,-0.0000033
 5,0.00000276,0.00000208,-0.00004073,0.00002097,-0.00003587,0.00005726,
 -0.00000044,0.00000502,-0.00011663,0.00000998,-0.00000696,-0.00011684,
 -0.00005147,0.00001772,0.00006619,0.00004079,-0.00001495,-0.00001853,-
 0.00002897,0.00002055,-0.00000012,-0.00000019,0.00002360,0.00000509,0.
 00000516,-0.00000595,-0.00000078,-0.00000019,-0.00000523,-0.00000017,0
 .00000034,0.00000103,0.00000054,-0.00000025,-0.00000087,0.00000282,0.0
 0000055,-0.00000003,0.00000034,0.00000431,-0.00000435,0.00000253,-0.00
 000007,0.00000012,-0.00000128,0.00000123,0.00000193,-0.00003275,-0.000
 00549,-0.00003813,0.00018334,-0.00013482,0.00006697,0.00001092,0.00001
 146,0.00001175,-0.00000114,0.00000076,0.00000571,0.00000140,0.00000925
 ,-0.00000654,0.00000255,-0.00000074,-0.00000075,-0.00001218,0.00000241
 ,-0.00000414,-0.00004304,-0.00012205,-0.00345070,-0.00085611,-0.000737
 29,0.00581182,-0.00052285,-0.00008468,-0.00012725,0.00019248,0.0001256
 2,-0.00000591,-0.00001358,-0.00004950,0.00001618,-0.00001470,-0.000155
 15,-0.00009704,-0.05806054,-0.04041912,-0.04783147,0.03046002,0.009103
 32,0.04402495,-0.00000055,-0.00000514,-0.00000020,-0.00001162,0.000037
 07,-0.00004797,0.00003006,0.00000002,0.00005964,-0.00002725,-0.0000046
 3,-0.00001157,-0.00000194,0.00000285,-0.00000049,0.00000536,-0.0000564
 9,0.00005157,-0.00003732,0.00008886,-0.00007471,-0.00013894,0.00007325
 ,-0.00005800,0.00005399,-0.00003131,0.00002790,-0.00006482,-0.00001330
 ,-0.00000207,0.00001629,0.00003909,-0.00003286,-0.00000968,-0.00000495
 ,-0.00005411,-0.00000318,-0.00001949,0.00001992,0.00000106,-0.00000273
 ,0.00000691,0.00000073,0.00000116,-0.00000398,0.00000168,-0.00000273,0
 .00000450,0.00000114,0.00000451,-0.00000020,0.00000064,-0.00000033,0.0
 0000266,0.00000220,-0.00000203,0.00000015,0.00000170,-0.00000243,-0.00
 000377,0.00001745,-0.00001351,0.00000896,0.00042860,-0.00005263,0.0000
 5132,-0.00001243,-0.00004207,-0.00005442,0.00000369,0.00001599,-0.0000
 1454,-0.00001154,-0.00002283,0.00001670,0.00000498,-0.00000151,0.00000
 875,-0.00000045,-0.00000146,-0.00000430,-0.00053077,-0.00087756,-0.000
 79695,0.00057460,0.00221673,0.00139665,-0.00006310,-0.00013084,-0.0000
 4463,-0.00010810,-0.00005181,-0.00015172,0.00006814,0.00005661,0.00005
 927,0.00002524,0.00000535,0.00007757,-0.02565723,0.00506562,-0.0549349
 3,0.00043702,-0.01858484,0.02886886,0.02500434,-0.00001087,0.00001386,
 0.00000534,-0.00000756,0.00003465,-0.00004146,-0.00000915,-0.00004653,
 0.00000994,0.00001389,0.00001682,-0.00000732,-0.00000024,-0.00000537,-
 0.00000261,0.00002699,-0.00002781,0.00003312,-0.00000170,0.00009453,-0
 .00005919,-0.00012889,0.00006182,-0.00006599,0.00002537,-0.00004910,0.
 00004183,-0.00004879,-0.00001483,-0.00000328,0.00001866,0.00002003,-0.
 00001367,0.00001239,0.00002841,-0.00000818,-0.00000343,-0.00000771,0.0
 0001717,0.00000109,0.00000097,0.00000461,-0.00000033,-0.00000855,-0.00
 000116,0.00000072,-0.00000060,0.00000084,-0.00000466,-0.00000236,-0.00
 000174,-0.00000210,-0.00000442,0.00000725,-0.00000015,-0.00000153,0.00
 000133,0.00000263,0.00000225,0.00000210,0.00000408,0.00000200,0.000025
 23,0.00025793,-0.00006584,0.00009325,-0.00001938,0.00001521,-0.0000156
 3,-0.00000732,-0.00000616,0.00000404,-0.00000133,-0.00000546,0.0000018
 5,0.00000209,-0.00000155,0.00000121,-0.00000108,0.00000223,0.00000603,
 -0.00139024,-0.00216418,-0.00204807,0.00219579,0.00375686,0.00248830,-
 0.00028297,0.00036573,-0.00016485,0.00008572,-0.00020327,0.00014197,0.
 00003128,-0.00001436,-0.00018524,0.00001662,0.00004912,-0.00002799,-0.
 01761611,-0.15774762,0.20401344,0.00452354,-0.01618823,0.03246537,0.01
 231750,0.17210104,0.00001031,-0.00000516,-0.00000960,-0.00003429,-0.00
 000608,0.00003005,0.00003324,0.00000698,-0.00002836,-0.00000898,-0.000
 01861,0.00000203,-0.00000596,0.00000502,0.00000123,-0.00001627,-0.0000
 3084,0.00001209,-0.00003827,-0.00001965,0.00000780,0.00014441,-0.00002
 278,0.00005585,-0.00001458,0.00004603,-0.00003866,0.00002825,0.0000021
 7,0.00000200,0.00000023,0.00000638,-0.00000187,-0.00000103,-0.00000216
 ,0.00003167,0.00000500,0.00000171,-0.00000061,-0.00000030,0.00000006,-
 0.00000700,-0.00000080,-0.00000136,0.00000128,0.00000247,-0.00000127,-
 0.00000037,0.00000430,0.00000178,0.00000005,0.00000078,0.00000717,-0.0
 0000621,0.00000547,-0.00000081,-0.00000036,-0.00000432,-0.00000262,0.0
 0000424,-0.00000824,0.00000808,-0.00000588,-0.00029037,0.00005071,-0.0
 0015103,-0.00002987,-0.00000710,-0.00000130,-0.00000158,0.00000529,0.0
 0000521,-0.00000014,0.00001092,-0.00000762,0.00000586,-0.00000059,-0.0
 0000079,0.00000061,0.00000121,-0.00000052,-0.00002330,-0.00112768,-0.0
 0004945,0.00040273,0.00268933,-0.00067347,-0.00021984,0.00002073,-0.00
 035541,0.00005632,0.00005222,0.00022259,-0.00000576,-0.00008018,-0.000
 10398,0.00000875,-0.00001518,-0.00008205,-0.01984221,0.24226143,-0.408
 69985,-0.00579268,-0.00711728,0.00163035,0.02563006,-0.23671787,0.4082
 1796\\0.00000038,-0.00000158,-0.00000329,-0.00000016,-0.00000064,0.000
 00310,-0.00000132,-0.00000384,-0.00000300,0.00000079,0.00000443,0.0000
 0176,0.00000046,-0.00000103,-0.00000123,-0.00000576,0.00000497,-0.0000
 0461,0.00000245,-0.00000167,-0.00000193,-0.00000807,-0.00000392,0.0000
 0206,0.00000017,0.00000345,-0.00000222,0.00000426,-0.00000044,0.000000
 96,0.00000191,-0.00000024,0.00000325,-0.00000108,-0.00000019,-0.000000
 30,0.00000013,0.00000258,0.00000059,0.00000059,0.00000046,0.00000043,-
 0.00000037,0.00000013,0.00000097,0.00000021,0.00000066,-0.00000032,-0.
 00000018,0.00000040,-0.00000060,-0.00000018,-0.00000041,-0.00000066,-0
 .00000025,-0.00000018,-0.00000108,0.00000060,-0.00000021,-0.00000075,0
 .00000108,-0.00000096,0.00000162,0.00000638,0.00000200,0.00000611,0.00
 000066,0.00000009,0.00000048,0.00000006,0.00000011,0.00000031,0.000000
 12,0.00000009,-0.00000041,-0.00000002,0.00000041,-0.00000045,-0.000001
 24,-0.00000023,-0.00000016,-0.00000581,-0.00000087,-0.00001822,0.00000
 424,0.00000870,0.00000775,0.00000904,-0.00000040,0.00000177,0.00000264
 ,-0.00001426,0.00001035,-0.00000035,0.00000264,-0.00000574,-0.00000607
 ,0.00000721,0.00000313,-0.00001009,-0.00001058,0.00000043,0.00000396,0
 .00000320,-0.00000620,0.00000081,0.00000010,0.00000610\\\@


 CHINESE FORTUNE COOKIE OF JAN 1 1967 SAY....
 ALL THINGS ARE DIFFICULT BEFORE THEY ARE EASY.
 WE LEARN SO LITTLE AND FORGET SO MUCH.
 YOU WILL OVERCOME OBSTACLES TO ACHIEVE SUCCESS.
 AH SO.
 Job cpu time:       0 days 18 hours 39 minutes 54.5 seconds.
 Elapsed time:       0 days  0 hours 40 minutes  1.9 seconds.
 File lengths (MBytes):  RWF=   1060 Int=      0 D2E=      0 Chk=     28 Scr=      8
 Normal termination of Gaussian 16 at Thu Jan 26 16:39:34 2023.
