 Entering Gaussian System, Link 0=g16
 Input=NicPyrNs3h3awB97XDaVDZ.gjf
 Output=NicPyrNs3h3awB97XDaVDZ.log
 Initial command:
 /sw/contrib/gaussian/g16/A03/g16/l1.exe "/gscratch/scrubbed/gds001/Gau-2746.inp" -scrdir="/gscratch/scrubbed/gds001/"
 Entering Link 1 = /sw/contrib/gaussian/g16/A03/g16/l1.exe PID=      2747.
  
 Copyright (c) 1988,1990,1992,1993,1995,1998,2003,2009,2016,
            Gaussian, Inc.  All Rights Reserved.
  
 This is part of the Gaussian(R) 16 program.  It is based on
 the Gaussian(R) 09 system (copyright 2009, Gaussian, Inc.),
 the Gaussian(R) 03 system (copyright 2003, Gaussian, Inc.),
 the Gaussian(R) 98 system (copyright 1998, Gaussian, Inc.),
 the Gaussian(R) 94 system (copyright 1995, Gaussian, Inc.),
 the Gaussian 92(TM) system (copyright 1992, Gaussian, Inc.),
 the Gaussian 90(TM) system (copyright 1990, Gaussian, Inc.),
 the Gaussian 88(TM) system (copyright 1988, Gaussian, Inc.),
 the Gaussian 86(TM) system (copyright 1986, Carnegie Mellon
 University), and the Gaussian 82(TM) system (copyright 1983,
 Carnegie Mellon University). Gaussian is a federally registered
 trademark of Gaussian, Inc.
  
 This software contains proprietary and confidential information,
 including trade secrets, belonging to Gaussian, Inc.
  
 This software is provided under written license and may be
 used, copied, transmitted, or stored only in accord with that
 written license.
  
 The following legend is applicable only to US Government
 contracts under FAR:
  
                    RESTRICTED RIGHTS LEGEND
  
 Use, reproduction and disclosure by the US Government is
 subject to restrictions as set forth in subparagraphs (a)
 and (c) of the Commercial Computer Software - Restricted
 Rights clause in FAR 52.227-19.
  
 Gaussian, Inc.
 340 Quinnipiac St., Bldg. 40, Wallingford CT 06492
  
  
 ---------------------------------------------------------------
 Warning -- This program may not be used in any manner that
 competes with the business of Gaussian, Inc. or will provide
 assistance to any competitor of Gaussian, Inc.  The licensee
 of this program is prohibited from giving any competitor of
 Gaussian, Inc. access to this program.  By using this program,
 the user acknowledges that Gaussian, Inc. is engaged in the
 business of creating and licensing software in the field of
 computational chemistry and represents and warrants to the
 licensee that it is not a competitor of Gaussian, Inc. and that
 it will not use this program in any manner prohibited above.
 ---------------------------------------------------------------
  

 Cite this work as:
 Gaussian 16, Revision A.03,
 M. J. Frisch, G. W. Trucks, H. B. Schlegel, G. E. Scuseria, 
 M. A. Robb, J. R. Cheeseman, G. Scalmani, V. Barone, 
 G. A. Petersson, H. Nakatsuji, X. Li, M. Caricato, A. V. Marenich, 
 J. Bloino, B. G. Janesko, R. Gomperts, B. Mennucci, H. P. Hratchian, 
 J. V. Ortiz, A. F. Izmaylov, J. L. Sonnenberg, D. Williams-Young, 
 F. Ding, F. Lipparini, F. Egidi, J. Goings, B. Peng, A. Petrone, 
 T. Henderson, D. Ranasinghe, V. G. Zakrzewski, J. Gao, N. Rega, 
 G. Zheng, W. Liang, M. Hada, M. Ehara, K. Toyota, R. Fukuda, 
 J. Hasegawa, M. Ishida, T. Nakajima, Y. Honda, O. Kitao, H. Nakai, 
 T. Vreven, K. Throssell, J. A. Montgomery, Jr., J. E. Peralta, 
 F. Ogliaro, M. J. Bearpark, J. J. Heyd, E. N. Brothers, K. N. Kudin, 
 V. N. Staroverov, T. A. Keith, R. Kobayashi, J. Normand, 
 K. Raghavachari, A. P. Rendell, J. C. Burant, S. S. Iyengar, 
 J. Tomasi, M. Cossi, J. M. Millam, M. Klene, C. Adamo, R. Cammi, 
 J. W. Ochterski, R. L. Martin, K. Morokuma, O. Farkas, 
 J. B. Foresman, and D. J. Fox, Gaussian, Inc., Wallingford CT, 2016.
 
 ******************************************
 Gaussian 16:  ES64L-G16RevA.03 25-Dec-2016
                25-Jan-2023 
 ******************************************
 %nprocshared=28
 Will use up to   28 processors via shared memory.
 %mem=41GB
 -----------------------------
 # wB97XD/aug-cc-pVDZ opt freq
 -----------------------------
 1/18=20,19=15,26=3,38=1/1,3;
 2/9=110,12=2,17=6,18=5,40=1/2;
 3/5=16,7=10,11=2,25=1,30=1,71=1,74=-58/1,2,3;
 4//1;
 5/5=2,38=5/2;
 6/7=2,8=2,9=2,10=2,28=1/1;
 7//1,2,3,16;
 1/18=20,19=15,26=3/3(2);
 2/9=110/2;
 99//99;
 2/9=110/2;
 3/5=16,7=10,11=2,25=1,30=1,71=1,74=-58/1,2,3;
 4/5=5,16=3,69=1/1;
 5/5=2,38=5/2;
 7//1,2,3,16;
 1/18=20,19=15,26=3/3(-5);
 2/9=110/2;
 6/7=2,8=2,9=2,10=2,19=2,28=1/1;
 99/9=1/99;
 ----
 blah
 ----
 Symbolic Z-matrix:
 Charge =  1 Multiplicity = 1
 C                     2.62667  -0.83492  -0.34786 
 C                     1.38774  -0.18978  -0.3574 
 C                     1.37264   1.195    -0.16182 
 C                     2.5788    1.85431   0.03253 
 C                     3.75972   1.10757   0.02058 
 N                     3.79045  -0.21247  -0.1656 
 C                     0.13379  -0.99192  -0.56323 
 C                    -0.85744  -0.51424  -1.62764 
 C                    -2.22931  -1.08843  -1.19871 
 C                    -2.01059  -1.65814   0.21212 
 N                    -0.73367  -1.03526   0.67719 
 O                    -1.76322   1.46929   1.18875 
 H                    -1.85581  -2.74328   0.20459 
 H                    -2.57123  -1.87884  -1.87365 
 H                    -2.99354  -0.30518  -1.18696 
 H                    -0.88184   0.58111  -1.64869 
 H                    -0.54047  -0.85365  -2.61791 
 H                    -2.80081  -1.41657   0.92915 
 H                     0.40417  -2.04107  -0.74973 
 H                     2.68229  -1.91641  -0.50259 
 H                     4.72402   1.59658   0.1679 
 H                     2.6134    2.93155   0.18617 
 H                     0.43444   1.75096  -0.15331 
 C                    -0.11607  -1.69373   1.84729 
 H                    -0.97362  -0.05421   0.93435 
 H                    -1.66521   2.0772    1.92512 
 H                    -2.59319   1.71001   0.73155 
 O                    -4.03223   1.93273  -0.26867 
 H                    -4.91784   1.87612   0.10241 
 H                    -4.07136   2.64787  -0.91085 
 H                    -0.83027  -1.68607   2.67609 
 H                     0.78898  -1.14702   2.12691 
 H                     0.13829  -2.72552   1.58253 
 O                    -4.47235   4.00357  -1.96718 
 H                    -4.43958   4.96479  -1.80776 
 H                    -4.78456   3.96748  -2.89008 
 
 Add virtual bond connecting atoms H25        and O12        Dist= 3.28D+00.
 Add virtual bond connecting atoms O34        and H30        Dist= 3.34D+00.
 Add virtual bond connecting atoms O28        and H27        Dist= 3.34D+00.

 GradGradGradGradGradGradGradGradGradGradGradGradGradGradGradGradGradGrad
 Berny optimization.
 Initialization pass.
                           ----------------------------
                           !    Initial Parameters    !
                           ! (Angstroms and Degrees)  !
 --------------------------                            --------------------------
 ! Name  Definition              Value          Derivative Info.                !
 --------------------------------------------------------------------------------
 ! R1    R(1,2)                  1.3969         estimate D2E/DX2                !
 ! R2    R(1,6)                  1.3323         estimate D2E/DX2                !
 ! R3    R(1,20)                 1.0939         estimate D2E/DX2                !
 ! R4    R(2,3)                  1.3986         estimate D2E/DX2                !
 ! R5    R(2,7)                  1.5027         estimate D2E/DX2                !
 ! R6    R(3,4)                  1.3883         estimate D2E/DX2                !
 ! R7    R(3,23)                 1.0906         estimate D2E/DX2                !
 ! R8    R(4,5)                  1.3973         estimate D2E/DX2                !
 ! R9    R(4,22)                 1.0887         estimate D2E/DX2                !
 ! R10   R(5,6)                  1.3335         estimate D2E/DX2                !
 ! R11   R(5,21)                 1.0912         estimate D2E/DX2                !
 ! R12   R(7,8)                  1.5309         estimate D2E/DX2                !
 ! R13   R(7,11)                 1.5143         estimate D2E/DX2                !
 ! R14   R(7,19)                 1.0994         estimate D2E/DX2                !
 ! R15   R(8,9)                  1.5478         estimate D2E/DX2                !
 ! R16   R(8,16)                 1.0958         estimate D2E/DX2                !
 ! R17   R(8,17)                 1.0938         estimate D2E/DX2                !
 ! R18   R(9,10)                 1.5372         estimate D2E/DX2                !
 ! R19   R(9,14)                 1.0942         estimate D2E/DX2                !
 ! R20   R(9,15)                 1.0944         estimate D2E/DX2                !
 ! R21   R(10,11)                1.4949         estimate D2E/DX2                !
 ! R22   R(10,13)                1.0961         estimate D2E/DX2                !
 ! R23   R(10,18)                1.094          estimate D2E/DX2                !
 ! R24   R(11,24)                1.4779         estimate D2E/DX2                !
 ! R25   R(11,25)                1.0422         estimate D2E/DX2                !
 ! R26   R(12,25)                1.7347         estimate D2E/DX2                !
 ! R27   R(12,26)                0.9599         estimate D2E/DX2                !
 ! R28   R(12,27)                0.9777         estimate D2E/DX2                !
 ! R29   R(24,31)                1.0941         estimate D2E/DX2                !
 ! R30   R(24,32)                1.0937         estimate D2E/DX2                !
 ! R31   R(24,33)                1.0952         estimate D2E/DX2                !
 ! R32   R(27,28)                1.7666         estimate D2E/DX2                !
 ! R33   R(28,29)                0.9619         estimate D2E/DX2                !
 ! R34   R(28,30)                0.962          estimate D2E/DX2                !
 ! R35   R(30,34)                1.7648         estimate D2E/DX2                !
 ! R36   R(34,35)                0.9749         estimate D2E/DX2                !
 ! R37   R(34,36)                0.975          estimate D2E/DX2                !
 ! A1    A(2,1,6)              124.049          estimate D2E/DX2                !
 ! A2    A(2,1,20)             120.0485         estimate D2E/DX2                !
 ! A3    A(6,1,20)             115.9014         estimate D2E/DX2                !
 ! A4    A(1,2,3)              117.7684         estimate D2E/DX2                !
 ! A5    A(1,2,7)              119.6371         estimate D2E/DX2                !
 ! A6    A(3,2,7)              122.5928         estimate D2E/DX2                !
 ! A7    A(2,3,4)              118.7128         estimate D2E/DX2                !
 ! A8    A(2,3,23)             121.0052         estimate D2E/DX2                !
 ! A9    A(4,3,23)             120.2803         estimate D2E/DX2                !
 ! A10   A(3,4,5)              118.6395         estimate D2E/DX2                !
 ! A11   A(3,4,22)             121.1501         estimate D2E/DX2                !
 ! A12   A(5,4,22)             120.2095         estimate D2E/DX2                !
 ! A13   A(4,5,6)              123.3481         estimate D2E/DX2                !
 ! A14   A(4,5,21)             120.4124         estimate D2E/DX2                !
 ! A15   A(6,5,21)             116.2395         estimate D2E/DX2                !
 ! A16   A(1,6,5)              117.4818         estimate D2E/DX2                !
 ! A17   A(2,7,8)              117.9674         estimate D2E/DX2                !
 ! A18   A(2,7,11)             112.4018         estimate D2E/DX2                !
 ! A19   A(2,7,19)             109.1123         estimate D2E/DX2                !
 ! A20   A(8,7,11)             101.9792         estimate D2E/DX2                !
 ! A21   A(8,7,19)             109.8199         estimate D2E/DX2                !
 ! A22   A(11,7,19)            104.6276         estimate D2E/DX2                !
 ! A23   A(7,8,9)              105.3943         estimate D2E/DX2                !
 ! A24   A(7,8,16)             109.8563         estimate D2E/DX2                !
 ! A25   A(7,8,17)             110.1833         estimate D2E/DX2                !
 ! A26   A(9,8,16)             110.879          estimate D2E/DX2                !
 ! A27   A(9,8,17)             113.1191         estimate D2E/DX2                !
 ! A28   A(16,8,17)            107.4121         estimate D2E/DX2                !
 ! A29   A(8,9,10)             105.4099         estimate D2E/DX2                !
 ! A30   A(8,9,14)             111.9634         estimate D2E/DX2                !
 ! A31   A(8,9,15)             110.8805         estimate D2E/DX2                !
 ! A32   A(10,9,14)            110.0525         estimate D2E/DX2                !
 ! A33   A(10,9,15)            110.7792         estimate D2E/DX2                !
 ! A34   A(14,9,15)            107.7832         estimate D2E/DX2                !
 ! A35   A(9,10,11)            104.634          estimate D2E/DX2                !
 ! A36   A(9,10,13)            112.377          estimate D2E/DX2                !
 ! A37   A(9,10,18)            114.6404         estimate D2E/DX2                !
 ! A38   A(11,10,13)           107.0977         estimate D2E/DX2                !
 ! A39   A(11,10,18)           108.7268         estimate D2E/DX2                !
 ! A40   A(13,10,18)           108.9706         estimate D2E/DX2                !
 ! A41   A(7,11,10)            104.2648         estimate D2E/DX2                !
 ! A42   A(7,11,24)            114.9556         estimate D2E/DX2                !
 ! A43   A(7,11,25)            107.8828         estimate D2E/DX2                !
 ! A44   A(10,11,24)           114.6845         estimate D2E/DX2                !
 ! A45   A(10,11,25)           105.8024         estimate D2E/DX2                !
 ! A46   A(24,11,25)           108.679          estimate D2E/DX2                !
 ! A47   A(25,12,26)           128.4789         estimate D2E/DX2                !
 ! A48   A(25,12,27)           122.281          estimate D2E/DX2                !
 ! A49   A(26,12,27)           106.8275         estimate D2E/DX2                !
 ! A50   A(11,24,31)           108.8955         estimate D2E/DX2                !
 ! A51   A(11,24,32)           108.9967         estimate D2E/DX2                !
 ! A52   A(11,24,33)           108.991          estimate D2E/DX2                !
 ! A53   A(31,24,32)           110.0601         estimate D2E/DX2                !
 ! A54   A(31,24,33)           109.9587         estimate D2E/DX2                !
 ! A55   A(32,24,33)           109.9108         estimate D2E/DX2                !
 ! A56   A(27,28,29)           121.6111         estimate D2E/DX2                !
 ! A57   A(27,28,30)           120.3202         estimate D2E/DX2                !
 ! A58   A(29,28,30)           105.298          estimate D2E/DX2                !
 ! A59   A(30,34,35)           130.6847         estimate D2E/DX2                !
 ! A60   A(30,34,36)           127.656          estimate D2E/DX2                !
 ! A61   A(35,34,36)           101.6571         estimate D2E/DX2                !
 ! A62   L(11,25,12,3,-1)      189.9215         estimate D2E/DX2                !
 ! A63   L(12,27,28,8,-1)      171.1424         estimate D2E/DX2                !
 ! A64   L(28,30,34,22,-1)     190.0615         estimate D2E/DX2                !
 ! A65   L(11,25,12,3,-2)      169.2645         estimate D2E/DX2                !
 ! A66   L(12,27,28,8,-2)      177.7598         estimate D2E/DX2                !
 ! A67   L(28,30,34,22,-2)     185.7034         estimate D2E/DX2                !
 ! D1    D(6,1,2,3)             -0.0674         estimate D2E/DX2                !
 ! D2    D(6,1,2,7)           -179.6065         estimate D2E/DX2                !
 ! D3    D(20,1,2,3)          -179.668          estimate D2E/DX2                !
 ! D4    D(20,1,2,7)             0.7929         estimate D2E/DX2                !
 ! D5    D(2,1,6,5)              0.1179         estimate D2E/DX2                !
 ! D6    D(20,1,6,5)           179.7336         estimate D2E/DX2                !
 ! D7    D(1,2,3,4)             -0.0963         estimate D2E/DX2                !
 ! D8    D(1,2,3,23)          -179.6276         estimate D2E/DX2                !
 ! D9    D(7,2,3,4)            179.4282         estimate D2E/DX2                !
 ! D10   D(7,2,3,23)            -0.1031         estimate D2E/DX2                !
 ! D11   D(1,2,7,8)           -129.7837         estimate D2E/DX2                !
 ! D12   D(1,2,7,11)           111.9834         estimate D2E/DX2                !
 ! D13   D(1,2,7,19)            -3.6062         estimate D2E/DX2                !
 ! D14   D(3,2,7,8)             50.7004         estimate D2E/DX2                !
 ! D15   D(3,2,7,11)           -67.5325         estimate D2E/DX2                !
 ! D16   D(3,2,7,19)           176.8779         estimate D2E/DX2                !
 ! D17   D(2,3,4,5)              0.1993         estimate D2E/DX2                !
 ! D18   D(2,3,4,22)           179.856          estimate D2E/DX2                !
 ! D19   D(23,3,4,5)           179.734          estimate D2E/DX2                !
 ! D20   D(23,3,4,22)           -0.6092         estimate D2E/DX2                !
 ! D21   D(3,4,5,6)             -0.1548         estimate D2E/DX2                !
 ! D22   D(3,4,5,21)           179.8487         estimate D2E/DX2                !
 ! D23   D(22,4,5,6)          -179.8149         estimate D2E/DX2                !
 ! D24   D(22,4,5,21)            0.1886         estimate D2E/DX2                !
 ! D25   D(4,5,6,1)             -0.0041         estimate D2E/DX2                !
 ! D26   D(21,5,6,1)           179.9925         estimate D2E/DX2                !
 ! D27   D(2,7,8,9)           -155.551          estimate D2E/DX2                !
 ! D28   D(2,7,8,16)           -36.0487         estimate D2E/DX2                !
 ! D29   D(2,7,8,17)            82.0974         estimate D2E/DX2                !
 ! D30   D(11,7,8,9)           -31.9257         estimate D2E/DX2                !
 ! D31   D(11,7,8,16)           87.5765         estimate D2E/DX2                !
 ! D32   D(11,7,8,17)         -154.2773         estimate D2E/DX2                !
 ! D33   D(19,7,8,9)            78.6157         estimate D2E/DX2                !
 ! D34   D(19,7,8,16)         -161.8821         estimate D2E/DX2                !
 ! D35   D(19,7,8,17)          -43.7359         estimate D2E/DX2                !
 ! D36   D(2,7,11,10)          170.5548         estimate D2E/DX2                !
 ! D37   D(2,7,11,24)          -63.0324         estimate D2E/DX2                !
 ! D38   D(2,7,11,25)           58.3894         estimate D2E/DX2                !
 ! D39   D(8,7,11,10)           43.2538         estimate D2E/DX2                !
 ! D40   D(8,7,11,24)          169.6666         estimate D2E/DX2                !
 ! D41   D(8,7,11,25)          -68.9116         estimate D2E/DX2                !
 ! D42   D(19,7,11,10)         -71.1774         estimate D2E/DX2                !
 ! D43   D(19,7,11,24)          55.2354         estimate D2E/DX2                !
 ! D44   D(19,7,11,25)         176.6572         estimate D2E/DX2                !
 ! D45   D(7,8,9,10)             9.5987         estimate D2E/DX2                !
 ! D46   D(7,8,9,14)          -110.0486         estimate D2E/DX2                !
 ! D47   D(7,8,9,15)           129.5333         estimate D2E/DX2                !
 ! D48   D(16,8,9,10)         -109.2232         estimate D2E/DX2                !
 ! D49   D(16,8,9,14)          131.1296         estimate D2E/DX2                !
 ! D50   D(16,8,9,15)           10.7114         estimate D2E/DX2                !
 ! D51   D(17,8,9,10)          130.0405         estimate D2E/DX2                !
 ! D52   D(17,8,9,14)           10.3932         estimate D2E/DX2                !
 ! D53   D(17,8,9,15)         -110.0249         estimate D2E/DX2                !
 ! D54   D(8,9,10,11)           16.8834         estimate D2E/DX2                !
 ! D55   D(8,9,10,13)          -98.9721         estimate D2E/DX2                !
 ! D56   D(8,9,10,18)          135.885          estimate D2E/DX2                !
 ! D57   D(14,9,10,11)         137.7878         estimate D2E/DX2                !
 ! D58   D(14,9,10,13)          21.9322         estimate D2E/DX2                !
 ! D59   D(14,9,10,18)        -103.2107         estimate D2E/DX2                !
 ! D60   D(15,9,10,11)        -103.118          estimate D2E/DX2                !
 ! D61   D(15,9,10,13)         141.0265         estimate D2E/DX2                !
 ! D62   D(15,9,10,18)          15.8836         estimate D2E/DX2                !
 ! D63   D(9,10,11,7)          -37.5764         estimate D2E/DX2                !
 ! D64   D(9,10,11,24)        -164.1587         estimate D2E/DX2                !
 ! D65   D(9,10,11,25)          76.0793         estimate D2E/DX2                !
 ! D66   D(13,10,11,7)          81.894          estimate D2E/DX2                !
 ! D67   D(13,10,11,24)        -44.6882         estimate D2E/DX2                !
 ! D68   D(13,10,11,25)       -164.4503         estimate D2E/DX2                !
 ! D69   D(18,10,11,7)        -160.4991         estimate D2E/DX2                !
 ! D70   D(18,10,11,24)         72.9187         estimate D2E/DX2                !
 ! D71   D(18,10,11,25)        -46.8433         estimate D2E/DX2                !
 ! D72   D(7,11,12,26)        -117.7017         estimate D2E/DX2                !
 ! D73   D(7,11,12,27)          86.0142         estimate D2E/DX2                !
 ! D74   D(10,11,12,26)        134.4464         estimate D2E/DX2                !
 ! D75   D(10,11,12,27)        -21.8377         estimate D2E/DX2                !
 ! D76   D(24,11,12,26)         13.3999         estimate D2E/DX2                !
 ! D77   D(24,11,12,27)       -142.8841         estimate D2E/DX2                !
 ! D78   D(7,11,24,31)        -178.9668         estimate D2E/DX2                !
 ! D79   D(7,11,24,32)          60.9497         estimate D2E/DX2                !
 ! D80   D(7,11,24,33)         -59.0095         estimate D2E/DX2                !
 ! D81   D(10,11,24,31)        -58.1027         estimate D2E/DX2                !
 ! D82   D(10,11,24,32)       -178.1863         estimate D2E/DX2                !
 ! D83   D(10,11,24,33)         61.8545         estimate D2E/DX2                !
 ! D84   D(25,11,24,31)         60.0456         estimate D2E/DX2                !
 ! D85   D(25,11,24,32)        -60.0379         estimate D2E/DX2                !
 ! D86   D(25,11,24,33)       -179.9971         estimate D2E/DX2                !
 ! D87   D(25,12,28,29)        103.803          estimate D2E/DX2                !
 ! D88   D(25,12,28,30)       -116.5657         estimate D2E/DX2                !
 ! D89   D(26,12,28,29)        -60.8199         estimate D2E/DX2                !
 ! D90   D(26,12,28,30)         78.8114         estimate D2E/DX2                !
 ! D91   D(27,28,34,35)        -53.3331         estimate D2E/DX2                !
 ! D92   D(27,28,34,36)        132.5865         estimate D2E/DX2                !
 ! D93   D(29,28,34,35)         85.273          estimate D2E/DX2                !
 ! D94   D(29,28,34,36)        -88.8074         estimate D2E/DX2                !
 --------------------------------------------------------------------------------
 Trust Radius=3.00D-01 FncErr=1.00D-07 GrdErr=1.00D-06 EigMax=2.50D+02 EigMin=1.00D-04
 Number of steps in this run=    208 maximum allowed number of steps=    216.
 GradGradGradGradGradGradGradGradGradGradGradGradGradGradGradGradGradGrad

                          Input orientation:                          
 ---------------------------------------------------------------------
 Center     Atomic      Atomic             Coordinates (Angstroms)
 Number     Number       Type             X           Y           Z
 ---------------------------------------------------------------------
      1          6           0        2.626669   -0.834919   -0.347857
      2          6           0        1.387735   -0.189775   -0.357403
      3          6           0        1.372641    1.195003   -0.161816
      4          6           0        2.578803    1.854310    0.032529
      5          6           0        3.759723    1.107568    0.020576
      6          7           0        3.790451   -0.212466   -0.165602
      7          6           0        0.133791   -0.991916   -0.563233
      8          6           0       -0.857442   -0.514241   -1.627635
      9          6           0       -2.229308   -1.088426   -1.198711
     10          6           0       -2.010591   -1.658144    0.212117
     11          7           0       -0.733670   -1.035264    0.677191
     12          8           0       -1.763219    1.469289    1.188753
     13          1           0       -1.855811   -2.743280    0.204592
     14          1           0       -2.571227   -1.878838   -1.873650
     15          1           0       -2.993535   -0.305180   -1.186960
     16          1           0       -0.881844    0.581105   -1.648687
     17          1           0       -0.540466   -0.853653   -2.617909
     18          1           0       -2.800807   -1.416565    0.929152
     19          1           0        0.404172   -2.041067   -0.749733
     20          1           0        2.682292   -1.916413   -0.502586
     21          1           0        4.724018    1.596584    0.167899
     22          1           0        2.613396    2.931547    0.186171
     23          1           0        0.434442    1.750962   -0.153306
     24          6           0       -0.116069   -1.693733    1.847285
     25          1           0       -0.973624   -0.054207    0.934352
     26          1           0       -1.665213    2.077197    1.925124
     27          1           0       -2.593191    1.710014    0.731547
     28          8           0       -4.032229    1.932730   -0.268668
     29          1           0       -4.917841    1.876120    0.102409
     30          1           0       -4.071361    2.647871   -0.910846
     31          1           0       -0.830272   -1.686069    2.676090
     32          1           0        0.788984   -1.147022    2.126905
     33          1           0        0.138288   -2.725520    1.582525
     34          8           0       -4.472348    4.003573   -1.967176
     35          1           0       -4.439581    4.964794   -1.807762
     36          1           0       -4.784555    3.967478   -2.890082
 ---------------------------------------------------------------------
                    Distance matrix (angstroms):
                    1          2          3          4          5
     1  C    0.000000
     2  C    1.396875   0.000000
     3  C    2.393278   1.398604   0.000000
     4  C    2.716420   2.397702   1.388266   0.000000
     5  C    2.278774   2.729889   2.395636   1.397261   0.000000
     6  N    1.332311   2.410466   2.797640   2.403936   1.333453
     7  C    2.507085   1.502721   2.545290   3.799213   4.230372
     8  C    3.725546   2.599921   3.169134   4.491543   5.163824
     9  C    4.936469   3.820782   4.388990   5.770059   6.494424
    10  C    4.742937   3.745541   4.441456   5.782052   6.401748
    11  N    3.518912   2.507109   3.180341   4.442714   5.021300
    12  O    5.190536   3.882216   3.425330   4.509795   5.656710
    13  H    4.903026   4.166151   5.105608   6.390089   6.811543
    14  H    5.516877   4.563477   5.285165   6.640235   7.251734
    15  H    5.707137   4.460606   4.729161   6.099303   7.004320
    16  H    4.000868   2.722620   2.769541   4.052606   4.960620
    17  H    3.896695   3.044434   3.726844   4.907925   5.412912
    18  H    5.605940   4.550178   5.042635   6.359462   7.087828
    19  H    2.560428   2.132745   3.428663   4.529339   4.665512
    20  H    1.093922   2.162923   3.392966   3.809909   3.252540
    21  H    3.252243   3.820707   3.391417   2.164878   1.091195
    22  H    3.804159   3.397112   2.162441   1.088688   2.160645
    23  H    3.395657   2.171839   1.090587   2.154878   3.391413
    24  C    3.616465   3.063326   3.820673   4.810851   5.119171
    25  H    3.900728   2.695000   2.875251   4.132246   4.958758
    26  H    5.662783   4.435040   3.789742   4.652232   5.830730
    27  H    5.906669   4.543433   4.097701   5.221012   6.420898
    28  O    7.211593   5.821418   5.456031   6.618354   7.840859
    29  H    8.029452   6.651288   6.332764   7.497001   8.711916
    30  H    7.570363   6.177399   5.684103   6.763459   8.035294
    31  H    4.671098   4.044815   4.605118   5.580725   5.993681
    32  H    3.098216   2.728848   3.326256   4.074047   4.283117
    33  H    3.673253   3.428475   4.465070   5.416036   5.499731
    34  O    8.742382   7.383503   6.731366   7.637859   8.950140
    35  H    9.257423   7.913958   7.120561   7.894270   9.243895
    36  H    9.189786   7.860940   7.282934   8.199157   9.468670
                    6          7          8          9         10
     6  N    0.000000
     7  C    3.759896   0.000000
     8  C    4.881754   1.530904   0.000000
     9  C    6.170261   2.448956   1.547799   0.000000
    10  C    5.990388   2.375584   2.454171   1.537157   0.000000
    11  N    4.674930   1.514272   2.366222   2.399743   1.494925
    12  O    5.958677   3.567300   3.561863   3.529749   3.285704
    13  H    6.198575   2.759592   3.053262   2.201659   1.096145
    14  H    6.794496   3.133839   2.204474   1.094167   2.171046
    15  H    6.861067   3.262025   2.191071   1.094374   2.180391
    16  H    4.965847   2.164283   1.095820   2.192139   3.122643
    17  H    5.018144   2.166895   1.093763   2.218429   3.289000
    18  H    6.789184   3.319549   3.335868   2.227574   1.094048
    19  H    3.892541   1.099366   2.166467   2.836252   2.627331
    20  H    2.060342   2.711684   3.970080   5.029311   4.754015
    21  H    2.062870   5.320251   6.231550   7.577971   7.479984
    22  H    3.375503   4.701448   5.216327   6.444367   6.515151
    23  H    3.888187   2.789590   2.995623   4.031198   4.211143
    24  C    4.637539   2.523009   3.743782   3.756364   2.502849
    25  H    4.891968   2.085288   2.605553   2.682594   2.041945
    26  H    6.275186   4.341404   4.471034   4.483048   4.123888
    27  H    6.726938   4.051335   3.677754   3.419002   3.457415
    28  O    8.112140   5.098632   4.232462   3.639078   4.148801
    29  H    8.959262   5.847025   5.019334   4.208284   4.577681
    30  H    8.399107   5.572449   4.565305   4.175637   4.904038
    31  H    5.621192   3.450287   4.460490   4.162759   2.732233
    32  H    3.890731   2.773117   4.148217   4.491463   3.430055
    33  H    4.765468   2.758565   4.023228   4.002607   2.763149
    34  O    9.449577   6.938479   5.795988   5.616958   6.547107
    35  H    9.860737   7.612291   6.548587   6.472845   7.337793
    36  H    9.920961   7.362061   6.091125   5.912038   6.997581
                   11         12         13         14         15
    11  N    0.000000
    12  O    2.755803   0.000000
    13  H    2.097586   4.326995   0.000000
    14  H    3.255000   4.608812   2.361815   0.000000
    15  H    3.019118   3.210363   3.029053   1.768131   0.000000
    16  H    2.836250   3.101090   3.928714   2.992648   2.336222
    17  H    3.305752   4.624052   3.642435   2.393515   2.892401
    18  H    2.117057   3.077683   1.782744   2.849930   2.397968
    19  H    2.083851   4.558279   2.551737   3.184730   3.840428
    20  H    3.719824   5.838337   4.666711   5.429612   5.939651
    21  H    6.080490   6.568302   7.882253   8.334691   8.063062
    22  H    5.213400   4.722089   7.223421   7.366341   6.618124
    23  H    3.133252   2.590401   5.056833   5.016879   4.128824
    24  C    1.477881   3.626496   2.612794   4.461773   4.406193
    25  H    1.042201   1.734710   2.922656   3.710322   2.939897
    26  H    3.480305   0.959896   5.121870   5.558935   4.138264
    27  H    3.316221   0.977670   4.544583   4.434793   2.811041
    28  O    4.536974   2.736286   5.179367   4.386177   2.632563
    29  H    5.129700   3.361145   5.543043   4.848826   3.181744
    30  H    5.218000   3.335400   5.934423   4.865027   3.155702
    31  H    2.104395   3.610934   2.877104   4.875266   4.637857
    32  H    2.105383   3.773454   3.638443   5.275511   5.098809
    33  H    2.106396   4.622468   2.423932   4.472526   4.830777
    34  O    6.808838   4.870510   7.555321   6.182699   4.621794
    35  H    7.477263   5.325464   8.374953   7.094391   5.499915
    36  H    7.359520   5.657413   7.949140   6.333354   4.935989
                   16         17         18         19         20
    16  H    0.000000
    17  H    1.764783   0.000000
    18  H    3.783961   4.243543   0.000000
    19  H    3.055772   2.406735   3.671587   0.000000
    20  H    4.500468   3.998777   5.688945   2.294875   0.000000
    21  H    5.979705   6.440433   8.141349   5.721505   4.118172
    22  H    4.594343   5.668990   6.983673   5.521184   4.897127
    23  H    2.310268   3.716010   4.655296   3.838766   4.315607
    24  C    4.240651   4.563311   2.850896   2.671291   3.660916
    25  H    2.661604   3.666783   2.279176   2.946536   4.347220
    26  H    3.952731   5.522145   3.806298   5.328913   6.383063
    27  H    3.141442   4.690941   3.139689   5.024837   6.519569
    28  O    3.695439   5.047303   3.764167   5.975294   7.743088
    29  H    4.586139   5.832084   4.000889   6.662906   8.515359
    30  H    3.871557   5.257562   4.638916   6.484018   8.161568
    31  H    4.883281   5.366873   2.647156   3.658707   4.742905
    32  H    4.475845   4.936270   3.793925   3.036848   3.330285
    33  H    4.734466   4.648466   3.283069   2.445117   3.387373
    34  O    4.970558   6.282976   6.368725   7.861316   9.401071
    35  H    5.647966   7.050798   7.134285   8.582742   9.988772
    36  H    5.314108   6.428816   6.892730   8.222323   9.801741
                   21         22         23         24         25
    21  H    0.000000
    22  H    2.497436   0.000000
    23  H    4.304354   2.501373   0.000000
    24  C    6.088757   5.621610   4.021362   0.000000
    25  H    5.981278   4.726649   2.534617   2.063224   0.000000
    26  H    6.643877   4.696846   2.972348   4.077477   2.450063
    27  H    7.339762   5.375698   3.154553   4.355054   2.403456
    28  O    8.773565   6.735640   4.471856   5.741498   3.840604
    29  H    9.646133   7.605292   5.359850   6.232612   4.469356
    30  H    8.923429   6.780110   4.656240   6.488540   4.505769
    31  H    6.922208   6.275422   4.627976   1.094103   2.391061
    32  H    5.181657   4.871309   3.704507   1.093710   2.392324
    33  H    6.458380   6.330748   4.810375   1.095162   2.965196
    34  O    9.742961   7.482908   5.695698   8.123212   6.093071
    35  H    9.960905   7.606205   6.068117   8.740029   6.687482
    36  H   10.265737   8.078748   6.296096   8.734227   6.732269
                   26         27         28         29         30
    26  H    0.000000
    27  H    1.555825   0.000000
    28  O    3.230535   1.766596   0.000000
    29  H    3.733940   2.414002   0.961879   0.000000
    30  H    3.762704   2.400420   0.961951   1.529318   0.000000
    31  H    3.927244   4.292145   5.658607   6.001770   6.492596
    32  H    4.057017   4.642067   6.202236   6.768000   6.874016
    33  H    5.141603   5.278172   6.520692   6.995018   7.267143
    34  O    5.171164   4.009333   2.714227   3.001284   1.764809
    35  H    5.474466   4.522260   3.424640   3.662976   2.511608
    36  H    6.040668   4.797335   3.402647   3.653293   2.483422
                   31         32         33         34         35
    31  H    0.000000
    32  H    1.792809   0.000000
    33  H    1.792889   1.792041   0.000000
    34  O    8.197357   8.424473   8.896012   0.000000
    35  H    8.795796   8.953982   9.570364   0.974901   0.000000
    36  H    8.864605   9.077038   9.435827   0.974952   1.511642
                   36
    36  H    0.000000
 Stoichiometry    C10H21N2O3(1+)
 Framework group  C1[X(C10H21N2O3)]
 Deg. of freedom   102
 Full point group                 C1      NOp   1
 Largest Abelian subgroup         C1      NOp   1
 Largest concise Abelian subgroup C1      NOp   1
                         Standard orientation:                         
 ---------------------------------------------------------------------
 Center     Atomic      Atomic             Coordinates (Angstroms)
 Number     Number       Type             X           Y           Z
 ---------------------------------------------------------------------
      1          6           0        3.169025    0.020572   -0.638210
      2          6           0        1.799053    0.175029   -0.413316
      3          6           0        1.360870    1.385476    0.133406
      4          6           0        2.300810    2.364622    0.425073
      5          6           0        3.646656    2.102224    0.156400
      6          7           0        4.079665    0.954040   -0.365398
      7          6           0        0.859400   -0.948210   -0.750298
      8          6           0       -0.372214   -0.623582   -1.599659
      9          6           0       -1.407485   -1.722636   -1.259105
     10          6           0       -0.819554   -2.479233   -0.057128
     11          7           0        0.236354   -1.568880    0.482423
     12          8           0       -1.471061    0.233691    1.678219
     13          1           0       -0.322115   -3.410190   -0.352776
     14          1           0       -1.564033   -2.410628   -2.095384
     15          1           0       -2.375688   -1.280883   -1.003972
     16          1           0       -0.755094    0.368760   -1.336065
     17          1           0       -0.103980   -0.599925   -2.659757
     18          1           0       -1.536621   -2.696771    0.740012
     19          1           0        1.428103   -1.765927   -1.215618
     20          1           0        3.551945   -0.908959   -1.069496
     21          1           0        4.409401    2.852188    0.371990
     22          1           0        2.003470    3.322158    0.849284
     23          1           0        0.303666    1.560238    0.336283
     24          6           0        1.192408   -2.212556    1.407504
     25          1           0       -0.271800   -0.818208    0.996674
     26          1           0       -1.474440    0.656451    2.539998
     27          1           0       -2.389568    0.263731    1.344630
     28          8           0       -3.947722    0.185122    0.515872
     29          1           0       -4.705238   -0.259785    0.907586
     30          1           0       -4.307455    0.965253    0.083046
     31          1           0        0.638333   -2.641148    2.247963
     32          1           0        1.899496   -1.460444    1.768827
     33          1           0        1.729502   -3.002618    0.872049
     34          8           0       -5.272370    2.293591   -0.564263
     35          1           0       -5.532784    3.143683   -0.164313
     36          1           0       -5.681819    2.357443   -1.446762
 ---------------------------------------------------------------------
 Rotational constants (GHZ):           0.6851693           0.2832279           0.2358040
 Standard basis: Aug-CC-pVDZ (5D, 7F)
 There are   564 symmetry adapted cartesian basis functions of A   symmetry.
 There are   534 symmetry adapted basis functions of A   symmetry.
   534 basis functions,   876 primitive gaussians,   564 cartesian basis functions
    59 alpha electrons       59 beta electrons
       nuclear repulsion energy      1060.9718730896 Hartrees.
 NAtoms=   36 NActive=   36 NUniq=   36 SFac= 1.00D+00 NAtFMM=   60 NAOKFM=F Big=F
 Integral buffers will be    131072 words long.
 Raffenetti 2 integral format.
 Two-electron integral symmetry is turned on.
 Nuclear repulsion after empirical dispersion term =     1060.9449906847 Hartrees.
 One-electron integrals computed using PRISM.
 NBasis=   534 RedAO= T EigKep=  2.27D-06  NBF=   534
 NBsUse=   534 1.00D-06 EigRej= -1.00D+00 NBFU=   534
 ExpMin= 2.97D-02 ExpMax= 1.17D+04 ExpMxC= 4.01D+02 IAcc=3 IRadAn=         5 AccDes= 0.00D+00
 Harris functional with IExCor= 4639 and IRadAn=       5 diagonalized for initial guess.
 HarFok:  IExCor= 4639 AccDes= 0.00D+00 IRadAn=         5 IDoV= 1 UseB2=F ITyADJ=14
 ICtDFT=  3500011 ScaDFX=  1.000000  1.000000  1.000000  1.000000
 FoFCou: FMM=F IPFlag=           0 FMFlag=      100000 FMFlg1=           0
         NFxFlg=           0 DoJE=T BraDBF=F KetDBF=T FulRan=T
         wScrn=  0.000000 ICntrl=       500 IOpCl=  0 I1Cent=   200000004 NGrid=           0
         NMat0=    1 NMatS0=      1 NMatT0=    0 NMatD0=    1 NMtDS0=    0 NMtDT0=    0
 Petite list used in FoFCou.
 Requested convergence on RMS density matrix=1.00D-08 within 128 cycles.
 Requested convergence on MAX density matrix=1.00D-06.
 Requested convergence on             energy=1.00D-06.
 No special actions if energy rises.
 SCF Done:  E(RwB97XD) =  -728.589097317     A.U. after   14 cycles
            NFock= 14  Conv=0.74D-08     -V/T= 2.0064

 **********************************************************************

            Population analysis using the SCF density.

 **********************************************************************

 Orbital symmetries:
       Occupied  (A) (A) (A) (A) (A) (A) (A) (A) (A) (A) (A) (A)
                 (A) (A) (A) (A) (A) (A) (A) (A) (A) (A) (A) (A)
                 (A) (A) (A) (A) (A) (A) (A) (A) (A) (A) (A) (A)
                 (A) (A) (A) (A) (A) (A) (A) (A) (A) (A) (A) (A)
                 (A) (A) (A) (A) (A) (A) (A) (A) (A) (A) (A)
       Virtual   (A) (A) (A) (A) (A) (A) (A) (A) (A) (A) (A) (A)
                 (A) (A) (A) (A) (A) (A) (A) (A) (A) (A) (A) (A)
                 (A) (A) (A) (A) (A) (A) (A) (A) (A) (A) (A) (A)
                 (A) (A) (A) (A) (A) (A) (A) (A) (A) (A) (A) (A)
                 (A) (A) (A) (A) (A) (A) (A) (A) (A) (A) (A) (A)
                 (A) (A) (A) (A) (A) (A) (A) (A) (A) (A) (A) (A)
                 (A) (A) (A) (A) (A) (A) (A) (A) (A) (A) (A) (A)
                 (A) (A) (A) (A) (A) (A) (A) (A) (A) (A) (A) (A)
                 (A) (A) (A) (A) (A) (A) (A) (A) (A) (A) (A) (A)
                 (A) (A) (A) (A) (A) (A) (A) (A) (A) (A) (A) (A)
                 (A) (A) (A) (A) (A) (A) (A) (A) (A) (A) (A) (A)
                 (A) (A) (A) (A) (A) (A) (A) (A) (A) (A) (A) (A)
                 (A) (A) (A) (A) (A) (A) (A) (A) (A) (A) (A) (A)
                 (A) (A) (A) (A) (A) (A) (A) (A) (A) (A) (A) (A)
                 (A) (A) (A) (A) (A) (A) (A) (A) (A) (A) (A) (A)
                 (A) (A) (A) (A) (A) (A) (A) (A) (A) (A) (A) (A)
                 (A) (A) (A) (A) (A) (A) (A) (A) (A) (A) (A) (A)
                 (A) (A) (A) (A) (A) (A) (A) (A) (A) (A) (A) (A)
                 (A) (A) (A) (A) (A) (A) (A) (A) (A) (A) (A) (A)
                 (A) (A) (A) (A) (A) (A) (A) (A) (A) (A) (A) (A)
                 (A) (A) (A) (A) (A) (A) (A) (A) (A) (A) (A) (A)
                 (A) (A) (A) (A) (A) (A) (A) (A) (A) (A) (A) (A)
                 (A) (A) (A) (A) (A) (A) (A) (A) (A) (A) (A) (A)
                 (A) (A) (A) (A) (A) (A) (A) (A) (A) (A) (A) (A)
                 (A) (A) (A) (A) (A) (A) (A) (A) (A) (A) (A) (A)
                 (A) (A) (A) (A) (A) (A) (A) (A) (A) (A) (A) (A)
                 (A) (A) (A) (A) (A) (A) (A) (A) (A) (A) (A) (A)
                 (A) (A) (A) (A) (A) (A) (A) (A) (A) (A) (A) (A)
                 (A) (A) (A) (A) (A) (A) (A) (A) (A) (A) (A) (A)
                 (A) (A) (A) (A) (A) (A) (A) (A) (A) (A) (A) (A)
                 (A) (A) (A) (A) (A) (A) (A) (A) (A) (A) (A) (A)
                 (A) (A) (A) (A) (A) (A) (A) (A) (A) (A) (A) (A)
                 (A) (A) (A) (A) (A) (A) (A) (A) (A) (A) (A) (A)
                 (A) (A) (A) (A) (A) (A) (A) (A) (A) (A) (A) (A)
                 (A) (A) (A) (A) (A) (A) (A) (A) (A) (A) (A) (A)
                 (A) (A) (A) (A) (A) (A) (A) (A) (A) (A) (A) (A)
                 (A) (A) (A) (A) (A) (A) (A) (A) (A) (A) (A) (A)
                 (A) (A) (A) (A) (A) (A) (A) (A) (A) (A) (A) (A)
                 (A) (A) (A) (A) (A) (A) (A) (A) (A) (A) (A) (A)
                 (A) (A) (A) (A) (A) (A) (A)
 The electronic state is 1-A.
 Alpha  occ. eigenvalues --  -19.41040 -19.40584 -19.39234 -14.68712 -14.55597
 Alpha  occ. eigenvalues --  -10.48998 -10.48110 -10.47841 -10.44798 -10.44207
 Alpha  occ. eigenvalues --  -10.43655 -10.43405 -10.43359 -10.43127 -10.41898
 Alpha  occ. eigenvalues --   -1.25715  -1.25023  -1.24494  -1.23238  -1.15905
 Alpha  occ. eigenvalues --   -1.05527  -1.03472  -0.99829  -0.95669  -0.94133
 Alpha  occ. eigenvalues --   -0.88389  -0.84127  -0.83955  -0.82288  -0.76876
 Alpha  occ. eigenvalues --   -0.76106  -0.74850  -0.74300  -0.74144  -0.71746
 Alpha  occ. eigenvalues --   -0.71304  -0.68993  -0.68386  -0.65739  -0.65615
 Alpha  occ. eigenvalues --   -0.64059  -0.63719  -0.62641  -0.61732  -0.61197
 Alpha  occ. eigenvalues --   -0.60268  -0.59859  -0.59292  -0.57734  -0.57644
 Alpha  occ. eigenvalues --   -0.57298  -0.55629  -0.54557  -0.54136  -0.53673
 Alpha  occ. eigenvalues --   -0.52655  -0.47923  -0.45210  -0.44598
 Alpha virt. eigenvalues --   -0.08181  -0.07216  -0.06675  -0.05969  -0.05367
 Alpha virt. eigenvalues --   -0.04583  -0.04065  -0.03263  -0.02878  -0.02678
 Alpha virt. eigenvalues --   -0.02456  -0.01659  -0.01474  -0.00757  -0.00687
 Alpha virt. eigenvalues --   -0.00326  -0.00237   0.00596   0.01023   0.01489
 Alpha virt. eigenvalues --    0.01577   0.02154   0.02283   0.02728   0.03029
 Alpha virt. eigenvalues --    0.03594   0.04109   0.04339   0.04536   0.05162
 Alpha virt. eigenvalues --    0.05540   0.05660   0.05773   0.05943   0.06260
 Alpha virt. eigenvalues --    0.06403   0.06552   0.07033   0.07129   0.07425
 Alpha virt. eigenvalues --    0.07568   0.08072   0.08173   0.08489   0.08602
 Alpha virt. eigenvalues --    0.09056   0.09236   0.09421   0.09955   0.10408
 Alpha virt. eigenvalues --    0.10776   0.11018   0.11483   0.11524   0.11717
 Alpha virt. eigenvalues --    0.11948   0.12388   0.12671   0.12768   0.13170
 Alpha virt. eigenvalues --    0.13666   0.13963   0.14131   0.14478   0.14757
 Alpha virt. eigenvalues --    0.15421   0.15774   0.15960   0.15982   0.16284
 Alpha virt. eigenvalues --    0.16627   0.17209   0.17793   0.18020   0.18384
 Alpha virt. eigenvalues --    0.18719   0.19053   0.19587   0.19895   0.20099
 Alpha virt. eigenvalues --    0.20484   0.20875   0.21298   0.21503   0.21786
 Alpha virt. eigenvalues --    0.22064   0.22214   0.22756   0.22905   0.23575
 Alpha virt. eigenvalues --    0.23758   0.24220   0.24372   0.24610   0.25125
 Alpha virt. eigenvalues --    0.25340   0.25667   0.26127   0.26493   0.27168
 Alpha virt. eigenvalues --    0.27497   0.27520   0.28007   0.28217   0.28558
 Alpha virt. eigenvalues --    0.29019   0.29302   0.29603   0.29918   0.30573
 Alpha virt. eigenvalues --    0.31089   0.31343   0.31580   0.32234   0.32613
 Alpha virt. eigenvalues --    0.33027   0.33321   0.33816   0.33948   0.34420
 Alpha virt. eigenvalues --    0.34924   0.35266   0.36013   0.36264   0.37618
 Alpha virt. eigenvalues --    0.37989   0.38346   0.38671   0.39082   0.39177
 Alpha virt. eigenvalues --    0.39957   0.40291   0.40957   0.41201   0.41570
 Alpha virt. eigenvalues --    0.42415   0.42713   0.43199   0.43490   0.43804
 Alpha virt. eigenvalues --    0.43917   0.44365   0.44470   0.45126   0.45297
 Alpha virt. eigenvalues --    0.46102   0.46438   0.46951   0.47189   0.47819
 Alpha virt. eigenvalues --    0.48497   0.48934   0.49379   0.49738   0.49782
 Alpha virt. eigenvalues --    0.50289   0.50801   0.50953   0.51636   0.51701
 Alpha virt. eigenvalues --    0.52245   0.52610   0.52836   0.53087   0.53490
 Alpha virt. eigenvalues --    0.54106   0.54892   0.55465   0.55724   0.56049
 Alpha virt. eigenvalues --    0.56540   0.56783   0.57145   0.57567   0.58155
 Alpha virt. eigenvalues --    0.58448   0.58930   0.59632   0.59780   0.60349
 Alpha virt. eigenvalues --    0.60483   0.60795   0.61537   0.61916   0.62398
 Alpha virt. eigenvalues --    0.62532   0.62881   0.63447   0.63760   0.64696
 Alpha virt. eigenvalues --    0.64891   0.65499   0.66301   0.66382   0.67373
 Alpha virt. eigenvalues --    0.67510   0.67844   0.68622   0.68792   0.69220
 Alpha virt. eigenvalues --    0.69705   0.70311   0.70916   0.71009   0.71445
 Alpha virt. eigenvalues --    0.72254   0.72484   0.73076   0.73098   0.73922
 Alpha virt. eigenvalues --    0.74021   0.75203   0.75372   0.75762   0.76681
 Alpha virt. eigenvalues --    0.77746   0.78256   0.78274   0.78547   0.78694
 Alpha virt. eigenvalues --    0.79847   0.80455   0.80869   0.81563   0.82636
 Alpha virt. eigenvalues --    0.82652   0.83173   0.83998   0.84737   0.84786
 Alpha virt. eigenvalues --    0.86142   0.86471   0.87865   0.88478   0.89179
 Alpha virt. eigenvalues --    0.90231   0.90861   0.91486   0.91981   0.92552
 Alpha virt. eigenvalues --    0.93168   0.94720   0.95084   0.96085   0.96258
 Alpha virt. eigenvalues --    0.96530   0.97429   0.99084   0.99418   0.99811
 Alpha virt. eigenvalues --    1.00942   1.01483   1.01876   1.02287   1.03068
 Alpha virt. eigenvalues --    1.04132   1.04602   1.05866   1.06441   1.07051
 Alpha virt. eigenvalues --    1.08034   1.09435   1.10271   1.10514   1.11347
 Alpha virt. eigenvalues --    1.12114   1.13642   1.14242   1.14600   1.14953
 Alpha virt. eigenvalues --    1.16462   1.16841   1.18371   1.19317   1.19571
 Alpha virt. eigenvalues --    1.20371   1.21009   1.23455   1.25565   1.26586
 Alpha virt. eigenvalues --    1.27837   1.29185   1.30771   1.30837   1.31400
 Alpha virt. eigenvalues --    1.33727   1.34665   1.35539   1.35997   1.36865
 Alpha virt. eigenvalues --    1.37127   1.37480   1.38868   1.39449   1.40840
 Alpha virt. eigenvalues --    1.41320   1.43573   1.43877   1.45148   1.45709
 Alpha virt. eigenvalues --    1.47252   1.48245   1.48806   1.48971   1.49217
 Alpha virt. eigenvalues --    1.51143   1.51563   1.52301   1.52482   1.54312
 Alpha virt. eigenvalues --    1.54761   1.56163   1.57522   1.58268   1.59169
 Alpha virt. eigenvalues --    1.59933   1.60364   1.60786   1.62189   1.62498
 Alpha virt. eigenvalues --    1.64777   1.66131   1.66606   1.67441   1.67996
 Alpha virt. eigenvalues --    1.69295   1.70132   1.71102   1.71449   1.72441
 Alpha virt. eigenvalues --    1.72909   1.73706   1.74149   1.74686   1.75212
 Alpha virt. eigenvalues --    1.75889   1.76185   1.77635   1.78981   1.79624
 Alpha virt. eigenvalues --    1.80084   1.81096   1.81429   1.81868   1.82412
 Alpha virt. eigenvalues --    1.83564   1.85144   1.85485   1.86275   1.87407
 Alpha virt. eigenvalues --    1.87614   1.88192   1.89233   1.90551   1.90783
 Alpha virt. eigenvalues --    1.92076   1.93868   1.94154   1.95317   1.95842
 Alpha virt. eigenvalues --    1.96489   1.96749   1.97812   1.99593   1.99894
 Alpha virt. eigenvalues --    2.00815   2.01862   2.02763   2.03826   2.04429
 Alpha virt. eigenvalues --    2.07037   2.07584   2.08363   2.08656   2.10497
 Alpha virt. eigenvalues --    2.10817   2.11928   2.12312   2.12949   2.14193
 Alpha virt. eigenvalues --    2.15015   2.15474   2.17156   2.18327   2.18940
 Alpha virt. eigenvalues --    2.21172   2.21770   2.22353   2.22526   2.24066
 Alpha virt. eigenvalues --    2.24694   2.25132   2.26533   2.26809   2.29579
 Alpha virt. eigenvalues --    2.29788   2.30485   2.30927   2.32001   2.34748
 Alpha virt. eigenvalues --    2.35846   2.36074   2.38425   2.39968   2.41040
 Alpha virt. eigenvalues --    2.42110   2.43408   2.44346   2.45884   2.46130
 Alpha virt. eigenvalues --    2.47820   2.49321   2.50718   2.53008   2.53186
 Alpha virt. eigenvalues --    2.54025   2.54675   2.55545   2.56646   2.57360
 Alpha virt. eigenvalues --    2.58164   2.60735   2.60911   2.63913   2.64778
 Alpha virt. eigenvalues --    2.66233   2.66783   2.67191   2.68293   2.71690
 Alpha virt. eigenvalues --    2.71982   2.73167   2.74492   2.77609   2.78246
 Alpha virt. eigenvalues --    2.79407   2.80668   2.80916   2.82472   2.83489
 Alpha virt. eigenvalues --    2.85143   2.86498   2.88961   2.91842   2.92878
 Alpha virt. eigenvalues --    2.95508   2.97565   2.98516   3.06578   3.09907
 Alpha virt. eigenvalues --    3.12387   3.16034   3.23235   3.27040   3.33938
 Alpha virt. eigenvalues --    3.34153   3.34918   3.37223   3.37414   3.41268
 Alpha virt. eigenvalues --    3.44542   3.48943   3.50063   3.51106   3.52690
 Alpha virt. eigenvalues --    3.57130   3.64826   3.78957   3.85310   3.86470
 Alpha virt. eigenvalues --    3.88877   4.03490   4.04883   4.07587   4.88612
          Condensed to atoms (all electrons):
               1          2          3          4          5          6
     1  C   13.950183  -2.179031  -1.014518  -1.243870  -0.582191  -0.039707
     2  C   -2.179031  16.475193  -5.681395   0.185647  -0.683824   0.125573
     3  C   -1.014518  -5.681395  19.665745  -4.736737   1.483526  -0.851142
     4  C   -1.243870   0.185647  -4.736737  12.083953  -2.092419   0.772437
     5  C   -0.582191  -0.683824   1.483526  -2.092419   9.011218  -0.217467
     6  N   -0.039707   0.125573  -0.851142   0.772437  -0.217467   7.412385
     7  C   -3.038521  -5.675339  -1.566822   1.286673  -1.242110   0.539851
     8  C    0.005180   0.489361  -0.634665  -0.011495  -0.009330  -0.018111
     9  C   -0.059106   0.219700   0.177094   0.009690   0.001383   0.012349
    10  C   -0.068986  -0.255969  -0.241223   0.069065  -0.023479   0.004298
    11  N   -0.021230   0.902273  -0.480451  -0.019169   0.075418  -0.032544
    12  O   -0.003312   0.009514  -0.050749  -0.028220   0.005611   0.000226
    13  H    0.018796   0.089654  -0.003261  -0.004230   0.001762  -0.000405
    14  H    0.006336  -0.013039   0.012601   0.000272   0.001385  -0.000067
    15  H   -0.008992  -0.111022  -0.020868   0.001585  -0.003046   0.001381
    16  H   -0.035757   0.095453  -0.031593   0.025129   0.001666   0.001542
    17  H    0.079855   0.166721   0.121190  -0.034894   0.025896  -0.011198
    18  H   -0.009062  -0.083176  -0.002710   0.007071  -0.001792   0.000999
    19  H    0.193671   0.769823  -0.190648   0.002274  -0.002036  -0.018699
    20  H   -0.341041  -0.069127   0.104867  -0.088283   0.136979  -0.164663
    21  H   -0.055454   0.097189   0.246898  -0.240252  -0.079071  -0.074693
    22  H    0.166149  -0.230246   0.782304  -1.016779   0.341417  -0.160764
    23  H   -0.041321  -0.303641  -2.303835   0.642188  -0.272861   0.070248
    24  C    0.102494   0.309875  -0.221190   0.050525   0.006409  -0.023116
    25  H   -0.026131  -0.241808   0.120482  -0.112454   0.034859  -0.006486
    26  H   -0.005652   0.011977   0.004387   0.005169  -0.000346   0.000274
    27  H    0.006295  -0.003374  -0.009771  -0.000111  -0.001381  -0.000025
    28  O   -0.001540  -0.009900   0.003709   0.001641  -0.000383   0.000023
    29  H    0.000029  -0.000430   0.000699  -0.000171   0.000080  -0.000007
    30  H   -0.000154   0.002490  -0.002315   0.001480  -0.000259  -0.000005
    31  H    0.017228   0.003779  -0.003775   0.000892   0.006555  -0.005069
    32  H   -0.030424   0.076944   0.089448   0.014834  -0.009793   0.012175
    33  H    0.028091   0.039084  -0.071217   0.014234  -0.007435   0.001676
    34  O    0.000016   0.000342   0.000780   0.000046  -0.000000  -0.000001
    35  H   -0.000019   0.000071   0.000017   0.000052   0.000001   0.000001
    36  H    0.000014  -0.000040   0.000063  -0.000040   0.000005  -0.000001
               7          8          9         10         11         12
     1  C   -3.038521   0.005180  -0.059106  -0.068986  -0.021230  -0.003312
     2  C   -5.675339   0.489361   0.219700  -0.255969   0.902273   0.009514
     3  C   -1.566822  -0.634665   0.177094  -0.241223  -0.480451  -0.050749
     4  C    1.286673  -0.011495   0.009690   0.069065  -0.019169  -0.028220
     5  C   -1.242110  -0.009330   0.001383  -0.023479   0.075418   0.005611
     6  N    0.539851  -0.018111   0.012349   0.004298  -0.032544   0.000226
     7  C   23.362536  -2.213313   0.603816  -0.470458  -3.668409   0.032241
     8  C   -2.213313   8.307019  -1.613473   0.792468  -0.237666   0.014664
     9  C    0.603816  -1.613473   7.865082  -0.778066  -1.276266   0.014623
    10  C   -0.470458   0.792468  -0.778066   5.803108   0.326678   0.003400
    11  N   -3.668409  -0.237666  -1.276266   0.326678  13.633859  -0.159787
    12  O    0.032241   0.014664   0.014623   0.003400  -0.159787   8.212413
    13  H    0.033747   0.059332   0.014300  -0.241074  -0.066068  -0.008562
    14  H   -0.101237   0.301084  -0.371956   0.261482  -0.143831  -0.006337
    15  H    0.194012   0.323519  -0.654939   0.143808   0.191660   0.021470
    16  H   -0.429495  -0.132614   0.331526   0.043145  -0.273350   0.009549
    17  H    0.243271  -0.898651   0.188529  -0.168084   0.290422   0.000440
    18  H    0.552008  -0.078033   0.347652  -0.359587  -1.077205   0.040103
    19  H   -3.150659   0.795902  -0.013732   0.056680  -0.437822   0.004067
    20  H    0.033713  -0.050190  -0.009675  -0.001201   0.062515  -0.000951
    21  H   -0.008672   0.003398   0.000510  -0.001351   0.000472   0.000192
    22  H   -0.137497  -0.004832  -0.001462   0.003839   0.011862   0.001978
    23  H    0.657021   0.041605   0.028780   0.014716  -0.242691  -0.040357
    24  C   -0.886966  -0.047109  -0.314580  -0.002056   1.277752   0.022456
    25  H    0.235456  -0.095719   0.262481  -0.192674  -0.095448  -0.105146
    26  H   -0.027522   0.007495  -0.003749   0.019131  -0.005860   0.347516
    27  H    0.033388  -0.013943   0.038146  -0.051246   0.004642   0.282279
    28  O   -0.009459   0.035172  -0.112422   0.052511   0.030219  -0.074213
    29  H    0.003765  -0.000091   0.004541  -0.006765  -0.000876   0.001343
    30  H   -0.005983  -0.002266   0.000623   0.006261   0.010106   0.002566
    31  H   -0.033711  -0.077524   0.067602   0.032497  -0.202090   0.010474
    32  H    0.005099   0.077532  -0.054329  -0.088469   0.065788   0.005569
    33  H   -0.043903   0.054760  -0.003654   0.120758  -0.341922  -0.005341
    34  O    0.000457  -0.000283   0.002040  -0.001261   0.001336   0.000598
    35  H   -0.000197  -0.000146   0.000176  -0.000235   0.000013   0.000326
    36  H    0.000231   0.000346  -0.000260   0.000087  -0.000032  -0.000115
              13         14         15         16         17         18
     1  C    0.018796   0.006336  -0.008992  -0.035757   0.079855  -0.009062
     2  C    0.089654  -0.013039  -0.111022   0.095453   0.166721  -0.083176
     3  C   -0.003261   0.012601  -0.020868  -0.031593   0.121190  -0.002710
     4  C   -0.004230   0.000272   0.001585   0.025129  -0.034894   0.007071
     5  C    0.001762   0.001385  -0.003046   0.001666   0.025896  -0.001792
     6  N   -0.000405  -0.000067   0.001381   0.001542  -0.011198   0.000999
     7  C    0.033747  -0.101237   0.194012  -0.429495   0.243271   0.552008
     8  C    0.059332   0.301084   0.323519  -0.132614  -0.898651  -0.078033
     9  C    0.014300  -0.371956  -0.654939   0.331526   0.188529   0.347652
    10  C   -0.241074   0.261482   0.143808   0.043145  -0.168084  -0.359587
    11  N   -0.066068  -0.143831   0.191660  -0.273350   0.290422  -1.077205
    12  O   -0.008562  -0.006337   0.021470   0.009549   0.000440   0.040103
    13  H    2.504618  -0.309034   0.203765  -0.062748   0.057149  -0.689058
    14  H   -0.309034   2.111930  -0.625800   0.204263  -0.298042   0.171805
    15  H    0.203765  -0.625800   2.318774  -0.424343   0.156681  -0.332313
    16  H   -0.062748   0.204263  -0.424343   2.403351  -0.663716   0.068716
    17  H    0.057149  -0.298042   0.156681  -0.663716   2.460678  -0.044023
    18  H   -0.689058   0.171805  -0.332313   0.068716  -0.044023   2.980545
    19  H   -0.154870   0.064329  -0.046344   0.286296  -0.316734   0.116428
    20  H    0.002500   0.001134  -0.001547  -0.005995   0.016140  -0.002678
    21  H   -0.000020   0.000039  -0.000031  -0.000345   0.000981  -0.000097
    22  H   -0.000162   0.000300  -0.001030   0.006697  -0.001912   0.000219
    23  H    0.006524  -0.012798   0.029755  -0.121445   0.035978  -0.003081
    24  C    0.044531  -0.041650   0.039829  -0.103318   0.090555  -0.245161
    25  H   -0.042023   0.015566  -0.051464   0.101608  -0.028688   0.131867
    26  H    0.000387   0.000292  -0.003119   0.003058  -0.000206  -0.001534
    27  H    0.001829  -0.000144   0.000282   0.001670   0.000741   0.011894
    28  O   -0.001779   0.002896  -0.015915   0.012714  -0.001054   0.004797
    29  H    0.000495  -0.001271   0.001917  -0.002183   0.000741  -0.001320
    30  H   -0.001143   0.004112  -0.002857   0.004169  -0.002708  -0.001135
    31  H    0.021383  -0.004708   0.012562  -0.014674   0.004521  -0.029328
    32  H    0.010920  -0.001011  -0.003789   0.004561   0.002388   0.002656
    33  H    0.007502   0.003277  -0.003792   0.003577   0.004881   0.032969
    34  O   -0.000098  -0.000024   0.003196  -0.003719   0.000233  -0.000579
    35  H    0.000014  -0.000121   0.001215  -0.000008   0.000047  -0.000085
    36  H    0.000000   0.000034  -0.001146  -0.000474   0.000056   0.000054
              19         20         21         22         23         24
     1  C    0.193671  -0.341041  -0.055454   0.166149  -0.041321   0.102494
     2  C    0.769823  -0.069127   0.097189  -0.230246  -0.303641   0.309875
     3  C   -0.190648   0.104867   0.246898   0.782304  -2.303835  -0.221190
     4  C    0.002274  -0.088283  -0.240252  -1.016779   0.642188   0.050525
     5  C   -0.002036   0.136979  -0.079071   0.341417  -0.272861   0.006409
     6  N   -0.018699  -0.164663  -0.074693  -0.160764   0.070248  -0.023116
     7  C   -3.150659   0.033713  -0.008672  -0.137497   0.657021  -0.886966
     8  C    0.795902  -0.050190   0.003398  -0.004832   0.041605  -0.047109
     9  C   -0.013732  -0.009675   0.000510  -0.001462   0.028780  -0.314580
    10  C    0.056680  -0.001201  -0.001351   0.003839   0.014716  -0.002056
    11  N   -0.437822   0.062515   0.000472   0.011862  -0.242691   1.277752
    12  O    0.004067  -0.000951   0.000192   0.001978  -0.040357   0.022456
    13  H   -0.154870   0.002500  -0.000020  -0.000162   0.006524   0.044531
    14  H    0.064329   0.001134   0.000039   0.000300  -0.012798  -0.041650
    15  H   -0.046344  -0.001547  -0.000031  -0.001030   0.029755   0.039829
    16  H    0.286296  -0.005995  -0.000345   0.006697  -0.121445  -0.103318
    17  H   -0.316734   0.016140   0.000981  -0.001912   0.035978   0.090555
    18  H    0.116428  -0.002678  -0.000097   0.000219  -0.003081  -0.245161
    19  H    4.185140  -0.083627   0.003976  -0.008684  -0.011350  -0.220900
    20  H   -0.083627   2.129385  -0.001395   0.007453  -0.012195   0.069341
    21  H    0.003976  -0.001395   1.693550  -0.082206  -0.012818  -0.000898
    22  H   -0.008684   0.007453  -0.082206   2.141632  -0.221450   0.001894
    23  H   -0.011350  -0.012195  -0.012818  -0.221450   4.079541  -0.052579
    24  C   -0.220900   0.069341  -0.000898   0.001894  -0.052579   4.974626
    25  H    0.042296   0.002321   0.002039   0.004284   0.027345  -0.379439
    26  H   -0.000737  -0.000130  -0.000075   0.000678  -0.014966  -0.000092
    27  H    0.002650  -0.000178   0.000017   0.000086   0.012383  -0.002481
    28  O   -0.000033  -0.000088  -0.000017   0.000238  -0.001521   0.006435
    29  H    0.000055   0.000026   0.000003  -0.000070   0.001966  -0.000252
    30  H   -0.000359  -0.000032  -0.000013   0.000360  -0.005325   0.000955
    31  H   -0.011184   0.007590   0.000341  -0.000772   0.010214   0.253903
    32  H    0.028482  -0.010043  -0.002126  -0.004389   0.008151   0.017262
    33  H    0.047535  -0.001318  -0.000117   0.001387  -0.017221   0.221341
    34  O   -0.000051   0.000002  -0.000000   0.000089  -0.001112   0.000157
    35  H   -0.000004  -0.000000   0.000000  -0.000008  -0.000340   0.000009
    36  H   -0.000006   0.000001   0.000000  -0.000008   0.000129   0.000009
              25         26         27         28         29         30
     1  C   -0.026131  -0.005652   0.006295  -0.001540   0.000029  -0.000154
     2  C   -0.241808   0.011977  -0.003374  -0.009900  -0.000430   0.002490
     3  C    0.120482   0.004387  -0.009771   0.003709   0.000699  -0.002315
     4  C   -0.112454   0.005169  -0.000111   0.001641  -0.000171   0.001480
     5  C    0.034859  -0.000346  -0.001381  -0.000383   0.000080  -0.000259
     6  N   -0.006486   0.000274  -0.000025   0.000023  -0.000007  -0.000005
     7  C    0.235456  -0.027522   0.033388  -0.009459   0.003765  -0.005983
     8  C   -0.095719   0.007495  -0.013943   0.035172  -0.000091  -0.002266
     9  C    0.262481  -0.003749   0.038146  -0.112422   0.004541   0.000623
    10  C   -0.192674   0.019131  -0.051246   0.052511  -0.006765   0.006261
    11  N   -0.095448  -0.005860   0.004642   0.030219  -0.000876   0.010106
    12  O   -0.105146   0.347516   0.282279  -0.074213   0.001343   0.002566
    13  H   -0.042023   0.000387   0.001829  -0.001779   0.000495  -0.001143
    14  H    0.015566   0.000292  -0.000144   0.002896  -0.001271   0.004112
    15  H   -0.051464  -0.003119   0.000282  -0.015915   0.001917  -0.002857
    16  H    0.101608   0.003058   0.001670   0.012714  -0.002183   0.004169
    17  H   -0.028688  -0.000206   0.000741  -0.001054   0.000741  -0.002708
    18  H    0.131867  -0.001534   0.011894   0.004797  -0.001320  -0.001135
    19  H    0.042296  -0.000737   0.002650  -0.000033   0.000055  -0.000359
    20  H    0.002321  -0.000130  -0.000178  -0.000088   0.000026  -0.000032
    21  H    0.002039  -0.000075   0.000017  -0.000017   0.000003  -0.000013
    22  H    0.004284   0.000678   0.000086   0.000238  -0.000070   0.000360
    23  H    0.027345  -0.014966   0.012383  -0.001521   0.001966  -0.005325
    24  C   -0.379439  -0.000092  -0.002481   0.006435  -0.000252   0.000955
    25  H    1.200186  -0.008828   0.014371  -0.020782   0.002377  -0.002612
    26  H   -0.008828   0.576735  -0.145590   0.007049   0.000012   0.000291
    27  H    0.014371  -0.145590   0.569776  -0.035127  -0.001676   0.000496
    28  O   -0.020782   0.007049  -0.035127   8.021774   0.339007   0.314003
    29  H    0.002377   0.000012  -0.001676   0.339007   0.564411  -0.113860
    30  H   -0.002612   0.000291   0.000496   0.314003  -0.113860   0.514160
    31  H   -0.001679  -0.003044   0.000509   0.000125   0.000146  -0.000347
    32  H   -0.028173   0.002392  -0.001314   0.000232  -0.000086   0.000078
    33  H   -0.068806   0.001379  -0.000398   0.000291  -0.000036   0.000050
    34  O   -0.001145   0.000206   0.001173  -0.043976   0.004669  -0.010840
    35  H    0.000080   0.000108  -0.000757   0.002143  -0.000721  -0.001215
    36  H   -0.000063  -0.000062   0.000671   0.002449  -0.000829  -0.002155
              31         32         33         34         35         36
     1  C    0.017228  -0.030424   0.028091   0.000016  -0.000019   0.000014
     2  C    0.003779   0.076944   0.039084   0.000342   0.000071  -0.000040
     3  C   -0.003775   0.089448  -0.071217   0.000780   0.000017   0.000063
     4  C    0.000892   0.014834   0.014234   0.000046   0.000052  -0.000040
     5  C    0.006555  -0.009793  -0.007435  -0.000000   0.000001   0.000005
     6  N   -0.005069   0.012175   0.001676  -0.000001   0.000001  -0.000001
     7  C   -0.033711   0.005099  -0.043903   0.000457  -0.000197   0.000231
     8  C   -0.077524   0.077532   0.054760  -0.000283  -0.000146   0.000346
     9  C    0.067602  -0.054329  -0.003654   0.002040   0.000176  -0.000260
    10  C    0.032497  -0.088469   0.120758  -0.001261  -0.000235   0.000087
    11  N   -0.202090   0.065788  -0.341922   0.001336   0.000013  -0.000032
    12  O    0.010474   0.005569  -0.005341   0.000598   0.000326  -0.000115
    13  H    0.021383   0.010920   0.007502  -0.000098   0.000014   0.000000
    14  H   -0.004708  -0.001011   0.003277  -0.000024  -0.000121   0.000034
    15  H    0.012562  -0.003789  -0.003792   0.003196   0.001215  -0.001146
    16  H   -0.014674   0.004561   0.003577  -0.003719  -0.000008  -0.000474
    17  H    0.004521   0.002388   0.004881   0.000233   0.000047   0.000056
    18  H   -0.029328   0.002656   0.032969  -0.000579  -0.000085   0.000054
    19  H   -0.011184   0.028482   0.047535  -0.000051  -0.000004  -0.000006
    20  H    0.007590  -0.010043  -0.001318   0.000002  -0.000000   0.000001
    21  H    0.000341  -0.002126  -0.000117  -0.000000   0.000000   0.000000
    22  H   -0.000772  -0.004389   0.001387   0.000089  -0.000008  -0.000008
    23  H    0.010214   0.008151  -0.017221  -0.001112  -0.000340   0.000129
    24  C    0.253903   0.017262   0.221341   0.000157   0.000009   0.000009
    25  H   -0.001679  -0.028173  -0.068806  -0.001145   0.000080  -0.000063
    26  H   -0.003044   0.002392   0.001379   0.000206   0.000108  -0.000062
    27  H    0.000509  -0.001314  -0.000398   0.001173  -0.000757   0.000671
    28  O    0.000125   0.000232   0.000291  -0.043976   0.002143   0.002449
    29  H    0.000146  -0.000086  -0.000036   0.004669  -0.000721  -0.000829
    30  H   -0.000347   0.000078   0.000050  -0.010840  -0.001215  -0.002155
    31  H    2.006149  -0.614255  -0.334171   0.000037   0.000003   0.000001
    32  H   -0.614255   1.919790  -0.396419   0.000005  -0.000001   0.000001
    33  H   -0.334171  -0.396419   1.817367   0.000008   0.000001   0.000001
    34  O    0.000037   0.000005   0.000008   7.728935   0.344202   0.342799
    35  H    0.000003  -0.000001   0.000001   0.344202   0.551801  -0.065470
    36  H    0.000001   0.000001   0.000001   0.342799  -0.065470   0.557305
 Mulliken charges:
               1
     1  C    0.231683
     2  C    1.470697
     3  C    1.305073
     4  C    0.454269
     5  C    0.095053
     6  N   -0.331267
     7  C    0.892987
     8  C    0.830619
     9  C    1.077024
    10  C    1.198252
    11  N   -1.102300
    12  O   -0.560530
    13  H   -0.494675
    14  H   -0.232067
    15  H   -0.333053
    16  H   -0.302912
    17  H   -0.478183
    18  H   -0.507826
    19  H   -0.931127
    20  H   -0.729610
    21  H   -0.489952
    22  H   -0.600596
    23  H   -0.973636
    24  C    1.051428
    25  H    0.311952
    26  H    0.232974
    27  H    0.284217
    28  O   -0.509216
    29  H    0.204362
    30  H    0.293384
    31  H   -0.120183
    32  H   -0.099687
    33  H   -0.104418
    34  O   -0.368234
    35  H    0.169050
    36  H    0.166446
 Sum of Mulliken charges =   1.00000
 Mulliken charges with hydrogens summed into heavy atoms:
               1
     1  C   -0.497927
     2  C    1.470697
     3  C    0.331437
     4  C   -0.146326
     5  C   -0.394899
     6  N   -0.331267
     7  C   -0.038141
     8  C    0.049524
     9  C    0.511903
    10  C    0.195751
    11  N   -0.790348
    12  O   -0.043339
    24  C    0.727141
    28  O   -0.011470
    34  O   -0.032738
 Electronic spatial extent (au):  <R**2>=           4823.8081
 Charge=              1.0000 electrons
 Dipole moment (field-independent basis, Debye):
    X=             -7.5886    Y=             -1.1839    Z=              1.5678  Tot=              7.8388
 Quadrupole moment (field-independent basis, Debye-Ang):
   XX=            -45.8213   YY=            -55.8896   ZZ=            -76.5493
   XY=            -17.2618   XZ=              5.3856   YZ=              0.1046
 Traceless Quadrupole moment (field-independent basis, Debye-Ang):
   XX=             13.5988   YY=              3.5304   ZZ=            -17.1292
   XY=            -17.2618   XZ=              5.3856   YZ=              0.1046
 Octapole moment (field-independent basis, Debye-Ang**2):
  XXX=           -369.1013  YYY=             30.2595  ZZZ=             19.9950  XYY=            -60.6786
  XXY=            116.5916  XXZ=             -8.3975  XZZ=            -47.3891  YZZ=             -1.4519
  YYZ=             10.8622  XYZ=             22.0040
 Hexadecapole moment (field-independent basis, Debye-Ang**3):
 XXXX=          -2583.2377 YYYY=          -1209.4181 ZZZZ=           -496.4730 XXXY=           -700.7352
 XXXZ=            219.1177 YYYX=           -239.5022 YYYZ=             -3.6447 ZZZX=              5.5624
 ZZZY=             -4.7090 XXYY=           -372.8863 XXZZ=           -623.2002 YYZZ=           -308.7649
 XXYZ=            -87.2516 YYXZ=             63.9278 ZZXY=            -80.2246
 N-N= 1.060944990685D+03 E-N=-3.805584650832D+03  KE= 7.239824348054D+02
 Calling FoFJK, ICntrl=      2127 FMM=F ISym2X=0 I1Cent= 0 IOpClX= 0 NMat=1 NMatS=1 NMatT=0.
 ***** Axes restored to original set *****
 -------------------------------------------------------------------
 Center     Atomic                   Forces (Hartrees/Bohr)
 Number     Number              X              Y              Z
 -------------------------------------------------------------------
      1        6          -0.000070875    0.000117413   -0.000005675
      2        6           0.000071476   -0.000061078    0.000007601
      3        6          -0.000192775    0.000105192   -0.000054571
      4        6           0.000211929   -0.000152669   -0.000018029
      5        6          -0.000126505    0.000045753    0.000017699
      6        7           0.000184303    0.000015016   -0.000005201
      7        6          -0.000219734   -0.000068463    0.000199984
      8        6          -0.000065620    0.000153166   -0.000038579
      9        6          -0.000228927    0.000219079   -0.000006540
     10        6          -0.000164288    0.000047750   -0.000145566
     11        7           0.000274608   -0.000454028   -0.000109268
     12        8           0.002897522   -0.000822005    0.001625741
     13        1           0.000109118   -0.000076984    0.000023366
     14        1           0.000137877   -0.000180155    0.000012528
     15        1           0.000030977    0.000392356    0.000267858
     16        1          -0.000228323   -0.000006196    0.000096263
     17        1           0.000067871   -0.000098870   -0.000007391
     18        1          -0.000003270    0.000230359   -0.000115077
     19        1           0.000043392   -0.000021598    0.000010608
     20        1          -0.000017091    0.000006974    0.000018567
     21        1           0.000026456   -0.000002450    0.000001006
     22        1          -0.000022258    0.000008384    0.000012560
     23        1          -0.000134821   -0.000094593    0.000045736
     24        6          -0.000100506    0.000135573   -0.000230079
     25        1          -0.000619621    0.001018055    0.000205072
     26        1          -0.000176116   -0.000282103   -0.000340312
     27        1          -0.004133918    0.000661166   -0.002761514
     28        8           0.002875368   -0.012067542    0.010763849
     29        1           0.001891351    0.000439473   -0.000923040
     30        1          -0.002582028    0.009700141   -0.007016698
     31        1          -0.000000143    0.000040609   -0.000032289
     32        1          -0.000012268   -0.000001259    0.000038912
     33        1           0.000005320   -0.000029719    0.000005484
     34        8          -0.005230736    0.019293769   -0.016735620
     35        1           0.001496193   -0.012956196    0.003605437
     36        1           0.004006062   -0.005254320    0.011587179
 -------------------------------------------------------------------
 Cartesian Forces:  Max     0.019293769 RMS     0.003732939

 GradGradGradGradGradGradGradGradGradGradGradGradGradGradGradGradGradGrad
 Berny optimization.
 FormGI is forming the generalized inverse of G from B-inverse, IUseBI=4.
 Internal  Forces:  Max     0.013824554 RMS     0.001760598
 Search for a local minimum.
 Step number   1 out of a maximum of  208
 All quantities printed in internal units (Hartrees-Bohrs-Radians)
 Mixed Optimization -- RFO/linear search
 Second derivative matrix not updated -- first step.
 ITU=  0
     Eigenvalues ---    0.00230   0.00230   0.00230   0.00230   0.00230
     Eigenvalues ---    0.00230   0.00230   0.00230   0.00230   0.00230
     Eigenvalues ---    0.00315   0.00428   0.00542   0.00662   0.00730
     Eigenvalues ---    0.01467   0.01547   0.02032   0.02134   0.02148
     Eigenvalues ---    0.02163   0.02191   0.02205   0.02259   0.02292
     Eigenvalues ---    0.02483   0.03591   0.03781   0.03986   0.04249
     Eigenvalues ---    0.04503   0.04904   0.05184   0.05510   0.05640
     Eigenvalues ---    0.06029   0.06085   0.06092   0.06463   0.06510
     Eigenvalues ---    0.06532   0.06919   0.07099   0.07154   0.07182
     Eigenvalues ---    0.09071   0.09936   0.11666   0.13716   0.14288
     Eigenvalues ---    0.15308   0.15999   0.16000   0.16000   0.16000
     Eigenvalues ---    0.16000   0.16000   0.16000   0.16000   0.16000
     Eigenvalues ---    0.16000   0.16000   0.16399   0.20042   0.22000
     Eigenvalues ---    0.23198   0.23446   0.24995   0.26273   0.27169
     Eigenvalues ---    0.28818   0.29627   0.31547   0.32092   0.33752
     Eigenvalues ---    0.34112   0.34149   0.34223   0.34312   0.34335
     Eigenvalues ---    0.34343   0.34349   0.34363   0.34381   0.34387
     Eigenvalues ---    0.34675   0.34745   0.34813   0.34964   0.40963
     Eigenvalues ---    0.42257   0.44275   0.46107   0.46863   0.51832
     Eigenvalues ---    0.52378   0.52388   0.55051   0.55071   0.55496
     Eigenvalues ---    0.56530   0.57924
 RFO step:  Lambda=-4.27044574D-03 EMin= 2.30000000D-03
 Linear search not attempted -- first point.
 Maximum step size (   0.300) exceeded in Quadratic search.
    -- Step size scaled by   0.494
 Iteration  1 RMS(Cart)=  0.23169774 RMS(Int)=  0.00854422
 Iteration  2 RMS(Cart)=  0.06707725 RMS(Int)=  0.00079332
 Iteration  3 RMS(Cart)=  0.00129895 RMS(Int)=  0.00060415
 Iteration  4 RMS(Cart)=  0.00000254 RMS(Int)=  0.00060415
 Iteration  5 RMS(Cart)=  0.00000001 RMS(Int)=  0.00060415
 Variable       Old X    -DE/DX   Delta X   Delta X   Delta X     New X
                                 (Linear)    (Quad)   (Total)
    R1        2.63971  -0.00003   0.00000  -0.00003  -0.00002   2.63969
    R2        2.51770   0.00011   0.00000   0.00009   0.00010   2.51780
    R3        2.06721  -0.00001   0.00000  -0.00001  -0.00001   2.06720
    R4        2.64298  -0.00008   0.00000  -0.00008  -0.00006   2.64292
    R5        2.83973  -0.00003   0.00000  -0.00005   0.00001   2.83974
    R6        2.62344   0.00009   0.00000   0.00009   0.00009   2.62353
    R7        2.06091   0.00007   0.00000   0.00010   0.00010   2.06101
    R8        2.64044  -0.00006   0.00000  -0.00007  -0.00008   2.64037
    R9        2.05732   0.00001   0.00000   0.00001   0.00001   2.05734
   R10        2.51986  -0.00001   0.00000  -0.00001  -0.00001   2.51985
   R11        2.06206   0.00002   0.00000   0.00003   0.00003   2.06209
   R12        2.89299   0.00017   0.00000   0.00042   0.00035   2.89334
   R13        2.86156  -0.00047   0.00000  -0.00086  -0.00043   2.86113
   R14        2.07750   0.00003   0.00000   0.00004   0.00004   2.07754
   R15        2.92492  -0.00014   0.00000  -0.00003  -0.00070   2.92422
   R16        2.07080  -0.00000   0.00000  -0.00000  -0.00000   2.07079
   R17        2.06691   0.00006   0.00000   0.00008   0.00008   2.06699
   R18        2.90481  -0.00018   0.00000  -0.00034  -0.00063   2.90417
   R19        2.06768   0.00008   0.00000   0.00011   0.00011   2.06779
   R20        2.06807   0.00026   0.00000   0.00037   0.00037   2.06844
   R21        2.82500  -0.00004   0.00000  -0.00024   0.00026   2.82526
   R22        2.07141   0.00009   0.00000   0.00013   0.00013   2.07154
[...]
   D62        0.18177  -0.00007   0.02930   0.00000   0.02930   0.21106
   D63       -0.61046  -0.00005  -0.00619   0.00000  -0.00619  -0.61665
   D64       -2.82412  -0.00027  -0.00500   0.00000  -0.00500  -2.82912
   D65        1.36692  -0.00006   0.00160   0.00000   0.00160   1.36852
   D66        1.48047  -0.00001  -0.00818   0.00000  -0.00818   1.47230
   D67       -0.73319  -0.00024  -0.00698   0.00000  -0.00698  -0.74017
   D68       -2.82533  -0.00003  -0.00038   0.00000  -0.00038  -2.82572
   D69       -2.74931   0.00005  -0.00850   0.00000  -0.00850  -2.75781
   D70        1.32022  -0.00017  -0.00731   0.00000  -0.00731   1.31291
   D71       -0.77193   0.00004  -0.00071   0.00000  -0.00071  -0.77264
   D72       -2.31424  -0.00028   0.03684   0.00000   0.03685  -2.27739
   D73        1.09878  -0.00004   0.04087   0.00000   0.04088   1.13966
   D74        2.08859  -0.00034   0.03308   0.00000   0.03308   2.12167
   D75       -0.78157  -0.00010   0.03711   0.00000   0.03711  -0.74446
   D76       -0.02867   0.00036   0.04069   0.00000   0.04069   0.01202
   D77       -2.89883   0.00061   0.04472   0.00000   0.04472  -2.85412
   D78       -3.11932  -0.00011  -0.00101   0.00000  -0.00101  -3.12033
   D79        1.06914  -0.00011  -0.00104   0.00000  -0.00104   1.06810
   D80       -1.02626  -0.00008  -0.00072   0.00000  -0.00072  -1.02698
   D81       -1.00348   0.00025  -0.00245   0.00000  -0.00245  -1.00593
   D82       -3.09820   0.00024  -0.00248   0.00000  -0.00248  -3.10069
   D83        1.08958   0.00027  -0.00216   0.00000  -0.00215   1.08742
   D84        1.05484  -0.00015  -0.00451   0.00000  -0.00452   1.05032
   D85       -1.03988  -0.00016  -0.00455   0.00000  -0.00455  -1.04443
   D86       -3.13528  -0.00013  -0.00422   0.00000  -0.00422  -3.13951
   D87        2.47811   0.00021  -0.03734   0.00000  -0.03734   2.44077
   D88       -1.34288  -0.00004  -0.09978   0.00000  -0.09978  -1.44266
   D89       -0.54372  -0.00007  -0.05024   0.00000  -0.05024  -0.59396
   D90        1.91848  -0.00032  -0.11268   0.00000  -0.11268   1.80580
   D91       -1.36281   0.00023   0.11044   0.00000   0.11045  -1.25236
   D92        2.47885   0.00014   0.07873   0.00000   0.07875   2.55761
   D93        1.20667   0.00000   0.04880   0.00000   0.04878   1.25544
   D94       -1.23486  -0.00009   0.01710   0.00000   0.01708  -1.21778
         Item               Value     Threshold  Converged?
 Maximum Force            0.001917     0.000450     NO 
 RMS     Force            0.000339     0.000300     NO 
 Maximum Displacement     0.319895     0.001800     NO 
 RMS     Displacement     0.060537     0.001200     NO 
 Predicted change in Energy=-3.505364D-06
 GradGradGradGradGradGradGradGradGradGradGradGradGradGradGradGradGradGrad

                          Input orientation:                          
 ---------------------------------------------------------------------
 Center     Atomic      Atomic             Coordinates (Angstroms)
 Number     Number       Type             X           Y           Z
 ---------------------------------------------------------------------
      1          6           0        2.350077   -0.436575   -0.717166
      2          6           0        1.072662    0.069969   -0.466033
      3          6           0        0.967467    1.410286   -0.081100
      4          6           0        2.128206    2.163264    0.034857
      5          6           0        3.353732    1.553508   -0.244229
      6          7           0        3.470130    0.277890   -0.614643
      7          6           0       -0.124211   -0.827798   -0.608102
      8          6           0       -1.288515   -0.336799   -1.469307
      9          6           0       -2.516639   -1.138186   -0.981636
     10          6           0       -2.081365   -1.790156    0.342559
     11          7           0       -0.809131   -1.095402    0.714030
     12          8           0       -1.967824    1.198808    1.633452
     13          1           0       -1.846946   -2.854568    0.227054
     14          1           0       -2.806958   -1.911687   -1.699441
     15          1           0       -3.373457   -0.475492   -0.830344
     16          1           0       -1.438477    0.738568   -1.318235
     17          1           0       -1.067241   -0.491916   -2.529246
     18          1           0       -2.794459   -1.667874    1.162871
     19          1           0        0.206455   -1.816410   -0.957913
     20          1           0        2.474909   -1.479025   -1.024199
     21          1           0        4.283394    2.119253   -0.163951
     22          1           0        2.093255    3.209239    0.335047
     23          1           0       -0.003105    1.856596    0.136905
     24          6           0        0.014376   -1.810697    1.710375
     25          1           0       -1.098015   -0.177152    1.118324
     26          1           0       -1.983057    1.693225    2.455105
     27          1           0       -2.703335    1.531830    1.071791
     28          8           0       -3.829823    1.915969   -0.151045
     29          1           0       -4.719368    2.224003    0.036955
     30          1           0       -3.497561    2.459208   -0.891262
     31          1           0       -0.582065   -1.969479    2.613779
     32          1           0        0.895251   -1.206309    1.944881
     33          1           0        0.323300   -2.774774    1.292481
     34          8           0       -2.608985    3.239471   -2.230449
     35          1           0       -2.298257    4.146898   -2.163943
     36          1           0       -2.893220    3.131757   -3.142628
 ---------------------------------------------------------------------
                    Distance matrix (angstroms):
                    1          2          3          4          5
     1  C    0.000000
     2  C    1.396941   0.000000
     3  C    2.393133   1.398460   0.000000
     4  C    2.715498   2.397279   1.388429   0.000000
     5  C    2.278470   2.730086   2.396118   1.396999   0.000000
     6  N    1.332475   2.411052   2.798270   2.403591   1.333401
     7  C    2.507399   1.502888   2.545292   3.799109   4.230734
     8  C    3.716856   2.597532   3.173150   4.492973   5.159896
     9  C    4.924137   3.822115   4.409611   5.788559   6.500019
    10  C    4.753196   3.749903   4.440461   5.783139   6.408173
    11  N    3.530293   2.508343   3.172855   4.439384   5.026372
    12  O    5.181134   3.863505   3.405928   4.501460   5.654242
    13  H    4.934901   4.190155   5.119069   6.404484   6.833762
    14  H    5.453057   4.527660   5.282122   6.630902   7.216600
    15  H    5.724785   4.494243   4.791779   6.162783   7.050918
    16  H    4.011905   2.734792   2.787521   4.072080   4.978240
    17  H    3.868431   3.025185   3.708346   4.882160   5.380526
    18  H    5.613990   4.541811   5.017431   6.338979   7.082194
    19  H    2.560668   2.133234   3.429214   4.529517   4.665945
    20  H    1.093871   2.162690   3.392629   3.808946   3.252221
    21  H    3.252079   3.820945   3.391883   2.164786   1.091230
    22  H    3.803297   3.396816   2.162593   1.088760   2.160048
    23  H    3.394928   2.170908   1.090288   2.155677   3.391973
    24  C    3.638223   3.064903   3.806902   4.802917   5.127344
    25  H    3.914800   2.698721   2.867890   4.130369   4.966868
    26  H    5.777145   4.528292   3.901023   4.793852   5.982243
    27  H    5.710688   4.331292   3.849509   4.981739   6.198422
    28  O    6.636725   5.247979   4.824375   5.966055   7.193296
    29  H    7.591075   6.200037   5.745969   6.847843   8.105773
    30  H    6.527690   5.174574   4.657583   5.709162   6.941121
    31  H    4.694938   4.047556   4.591975   5.574582   6.005842
    32  H    3.129777   2.733655   3.310043   4.064775   4.295686
    33  H    3.689672   3.427313   4.451562   5.405878   5.502637
    34  O    6.355756   5.168503   4.555944   5.360113   6.507037
    35  H    6.686433   5.555838   4.742597   5.325701   6.508144
    36  H    6.790289   5.680398   5.219322   6.020723   7.065125
                    6          7          8          9         10
     6  N    0.000000
     7  C    3.760569   0.000000
     8  C    4.873705   1.529169   0.000000
     9  C    6.162902   2.441225   1.545424   0.000000
    10  C    6.001012   2.379147   2.454326   1.538838   0.000000
    11  N    4.686511   1.512865   2.360561   2.406803   1.496413
    12  O    5.955953   3.539859   3.527984   3.549848   3.257791
    13  H    6.228326   2.788028   3.086851   2.203495   1.096023
    14  H    6.735939   3.092405   2.199751   1.094456   2.170488
    15  H    6.888309   3.275837   2.185062   1.093704   2.184844
    16  H    4.980129   2.164506   1.096233   2.190420   3.092893
    17  H    4.984581   2.166314   1.093843   2.216645   3.310761
    18  H    6.796369   3.312445   3.311795   2.226356   1.093786
    19  H    3.893007   1.099574   2.164650   2.806385   2.631736
    20  H    2.060327   2.711579   3.958050   5.003353   4.767018
    21  H    2.062799   5.320654   6.227545   7.584192   7.486667
    22  H    3.374983   4.701527   5.221728   6.471853   6.513176
    23  H    3.888509   2.788489   3.007187   4.066657   4.202411
    24  C    4.659415   2.522030   3.739021   3.755694   2.502693
    25  H    4.906953   2.086187   2.599541   2.710334   2.042198
    26  H    6.415901   4.381107   4.472628   4.484728   4.075103
    27  H    6.521357   3.878371   3.456974   3.373484   3.457487
    28  O    7.495835   4.633434   3.642942   3.426688   4.127483
    29  H    8.442737   5.553832   4.538424   4.146547   4.813100
    30  H    7.306394   4.718483   3.609942   3.729828   4.645969
    31  H    5.647447   3.448707   4.453797   4.166609   2.727361
    32  H    3.922246   2.774940   4.145065   4.495569   3.430533
    33  H    4.781048   2.757389   4.021087   3.989397   2.766629
    34  O    6.952513   5.034758   3.887504   4.553234   5.674143
    35  H    7.116449   5.647540   4.648186   5.420115   6.448116
    36  H    7.418052   5.456126   4.172046   4.800428   6.085299
                   11         12         13         14         15
    11  N    0.000000
    12  O    2.729708   0.000000
    13  H    2.099731   4.292135   0.000000
    14  H    3.237665   4.635461   2.349901   0.000000
    15  H    3.056983   3.293839   3.018001   1.771696   0.000000
    16  H    2.808847   3.033890   3.932607   3.006977   2.335836
    17  H    3.309027   4.582320   3.713120   2.393938   2.864467
    18  H    2.114405   3.020370   1.783753   2.872704   2.393724
    19  H    2.084865   4.531468   2.588122   3.104771   3.824932
    20  H    3.735442   5.828531   4.704911   5.342403   5.937006
    21  H    6.085940   6.569293   7.903977   8.299355   8.111976
    22  H    5.205517   4.713815   7.232331   7.373948   6.694798
    23  H    3.114007   2.555868   5.059935   5.043184   4.211113
    24  C    1.477334   3.604463   2.598928   4.426847   4.440207
    25  H    1.044073   1.707393   2.919557   3.724097   3.010639
    26  H    3.490829   0.959059   5.066080   5.561876   4.175012
    27  H    3.258580   0.983536   4.548348   4.421342   2.845438
    28  O    4.352159   2.676899   5.180037   4.253790   2.527608
    29  H    5.173667   3.342278   5.837708   4.876096   3.138624
    30  H    4.737074   3.209811   5.675507   4.498312   2.937955
    31  H    2.103477   3.594358   2.842492   4.853592   4.678231
    32  H    2.105282   3.752169   3.631437   5.242613   5.143718
    33  H    2.106489   4.599441   2.418981   4.415318   4.843459
    34  O    5.540808   4.416461   6.614933   5.182238   4.042977
    35  H    6.162948   4.818779   7.412225   6.097621   4.929607
    36  H    6.089837   5.234844   6.948780   5.246576   4.311558
                   16         17         18         19         20
    16  H    0.000000
    17  H    1.765915   0.000000
    18  H    3.712887   4.242391   0.000000
    19  H    3.059991   2.417783   3.677672   0.000000
    20  H    4.507634   3.973208   5.708343   2.294364   0.000000
    21  H    5.998205   6.406412   8.136263   5.721997   4.118039
    22  H    4.616349   5.647252   6.954226   5.521676   4.896226
    23  H    2.329744   3.708942   4.611523   3.838426   4.314520
    24  C    4.216873   4.569843   2.865260   2.675199   3.693525
    25  H    2.625124   3.661255   2.258795   2.949503   4.364752
    26  H    3.930144   5.518815   3.691237   5.362854   6.483995
    27  H    2.818040   4.442951   3.202296   4.878246   6.346072
    28  O    2.909835   4.368708   3.955033   5.556368   7.213739
    29  H    3.848026   5.224905   4.485495   6.448134   8.160642
    30  H    2.717119   4.159156   4.663327   5.657304   7.155260
    31  H    4.850535   5.373015   2.662853   3.660898   4.777083
    32  H    4.458336   4.937565   3.799808   3.045140   3.374186
    33  H    4.718397   4.663758   3.310959   2.448752   3.416928
    34  O    2.908047   4.048395   5.969175   5.925199   7.040257
    35  H    3.615405   4.813256   6.717549   6.579448   7.465463
    36  H    3.342460   4.103833   6.448529   6.234206   7.386736
                   21         22         23         24         25
    21  H    0.000000
    22  H    2.496754   0.000000
    23  H    4.305064   2.502724   0.000000
    24  C    6.097715   5.604733   3.990633   0.000000
    25  H    5.989763   4.718620   2.509610   2.063107   0.000000
    26  H    6.805098   4.838312   3.053024   4.101443   2.463452
    27  H    7.119446   5.134566   2.875887   4.355023   2.345173
    28  O    8.115773   6.082078   3.837995   5.668403   3.668137
    29  H    9.005612   6.889947   4.731608   6.441077   4.477622
    30  H    7.822264   5.772660   3.692085   6.110181   4.092267
    31  H    6.935864   6.258520   4.594447   1.094117   2.390612
    32  H    5.194810   4.850139   3.668407   1.093718   2.390705
    33  H    6.461814   6.313306   4.784504   1.095223   2.966160
    34  O    7.282183   5.356654   3.782502   6.922162   5.017033
    35  H    7.171432   5.139020   3.975815   7.473390   5.559790
    36  H    7.835909   6.079897   4.553475   7.512231   5.685715
                   26         27         28         29         30
    26  H    0.000000
    27  H    1.567931   0.000000
    28  O    3.201902   1.706419   0.000000
    29  H    3.690064   2.369468   0.959958   0.000000
    30  H    3.752149   2.311796   0.976436   1.552327   0.000000
    31  H    3.924711   4.374548   5.769652   6.429820   6.355997
    32  H    4.117315   4.605379   6.038862   6.850633   6.385650
    33  H    5.160813   5.268402   6.429251   7.210590   6.838295
    34  O    4.973639   3.718834   2.750640   3.259756   1.786561
    35  H    5.239797   4.180029   3.372610   3.795162   2.430297
    36  H    5.850845   4.511890   3.362281   3.777377   2.426149
                   31         32         33         34         35
    31  H    0.000000
    32  H    1.792293   0.000000
    33  H    1.792767   1.792438   0.000000
    34  O    7.396493   7.034061   7.561777   0.000000
    35  H    7.948711   7.465772   8.168780   0.961456   0.000000
    36  H    8.031205   7.684665   8.056259   0.961489   1.530462
                   36
    36  H    0.000000
 Stoichiometry    C10H21N2O3(1+)
 Framework group  C1[X(C10H21N2O3)]
 Deg. of freedom   102
 Full point group                 C1      NOp   1
 Largest Abelian subgroup         C1      NOp   1
 Largest concise Abelian subgroup C1      NOp   1
                         Standard orientation:                         
 ---------------------------------------------------------------------
 Center     Atomic      Atomic             Coordinates (Angstroms)
 Number     Number       Type             X           Y           Z
 ---------------------------------------------------------------------
      1          6           0        2.794462   -0.234342   -0.814353
      2          6           0        1.485135   -0.006957   -0.383769
      3          6           0        1.257295    1.084428    0.460421
      4          6           0        2.335104    1.878602    0.828323
      5          6           0        3.602505    1.559431    0.334938
      6          7           0        3.835297    0.524118   -0.472461
      7          6           0        0.385597   -0.930214   -0.827939
      8          6           0       -0.868431   -0.306088   -1.441324
      9          6           0       -1.976115   -1.368929   -1.263171
     10          6           0       -1.404216   -2.394456   -0.268562
     11          7           0       -0.195992   -1.732294    0.315381
     12          8           0       -1.543863   -0.073801    2.013600
     13          1           0       -1.063449   -3.311217   -0.763226
     14          1           0       -2.219283   -1.863345   -2.208821
     15          1           0       -2.889865   -0.911149   -0.873700
     16          1           0       -1.124645    0.618157   -0.910428
     17          1           0       -0.688016   -0.044492   -2.487991
     18          1           0       -2.082046   -2.659333    0.547988
     19          1           0        0.801437   -1.681539   -1.514707
     20          1           0        3.013972   -1.075329   -1.478514
     21          1           0        4.469085    2.165424    0.604370
     22          1           0        2.204092    2.735999    1.486432
     23          1           0        0.257323    1.304383    0.835128
     24          6           0        0.750856   -2.653060    0.977336
     25          1           0       -0.559932   -1.060651    1.027091
     26          1           0       -1.568659    0.088608    2.958482
     27          1           0       -2.339433    0.347935    1.617936
     28          8           0       -3.563532    1.006867    0.628362
     29          1           0       -4.469815    1.119109    0.924291
     30          1           0       -3.330936    1.814249    0.130909
     31          1           0        0.223360   -3.194107    1.768605
     32          1           0        1.572990   -2.072216    1.405045
     33          1           0        1.138889   -3.359905    0.236179
     34          8           0       -2.603014    3.121538   -0.845269
     35          1           0       -2.388293    3.975287   -0.458738
     36          1           0       -2.921776    3.314051   -1.731718
 ---------------------------------------------------------------------
 Rotational constants (GHZ):           0.6255863           0.3787934           0.2958316
 Standard basis: Aug-CC-pVDZ (5D, 7F)
 There are   564 symmetry adapted cartesian basis functions of A   symmetry.
 There are   534 symmetry adapted basis functions of A   symmetry.
   534 basis functions,   876 primitive gaussians,   564 cartesian basis functions
    59 alpha electrons       59 beta electrons
       nuclear repulsion energy      1091.3067335027 Hartrees.
 NAtoms=   36 NActive=   36 NUniq=   36 SFac= 1.00D+00 NAtFMM=   60 NAOKFM=F Big=F
 Integral buffers will be    131072 words long.
 Raffenetti 2 integral format.
 Two-electron integral symmetry is turned on.
 Nuclear repulsion after empirical dispersion term =     1091.2783138405 Hartrees.
 One-electron integrals computed using PRISM.
 NBasis=   534 RedAO= T EigKep=  1.98D-06  NBF=   534
 NBsUse=   534 1.00D-06 EigRej= -1.00D+00 NBFU=   534
 Lowest energy guess from the checkpoint file:  "/gscratch/scrubbed/gds001/Gau-2747.chk"
 B after Tr=    -0.000000    0.000000   -0.000000
         Rot=    1.000000   -0.000153   -0.000124   -0.000210 Ang=  -0.03 deg.
 B after Tr=     0.000000    0.000000    0.000000
         Rot=    0.999981    0.002755    0.002701    0.004837 Ang=   0.71 deg.
 Requested convergence on RMS density matrix=1.00D-08 within 128 cycles.
 Requested convergence on MAX density matrix=1.00D-06.
 Requested convergence on             energy=1.00D-06.
 No special actions if energy rises.
