 Entering Gaussian System, Link 0=g16
 Input=NicPyrNa3h3awB97XDaVDDZ.gjf
 Output=NicPyrNa3h3awB97XDaVDDZ.log
 Initial command:
 /sw/contrib/gaussian/g16/A03/g16/l1.exe "/gscratch/scrubbed/gds001/Gau-130926.inp" -scrdir="/gscratch/scrubbed/gds001/"
 Entering Link 1 = /sw/contrib/gaussian/g16/A03/g16/l1.exe PID=    130927.
  
 Copyright (c) 1988,1990,1992,1993,1995,1998,2003,2009,2016,
            Gaussian, Inc.  All Rights Reserved.
  
 This is part of the Gaussian(R) 16 program.  It is based on
 the Gaussian(R) 09 system (copyright 2009, Gaussian, Inc.),
 the Gaussian(R) 03 system (copyright 2003, Gaussian, Inc.),
 the Gaussian(R) 98 system (copyright 1998, Gaussian, Inc.),
 the Gaussian(R) 94 system (copyright 1995, Gaussian, Inc.),
 the Gaussian 92(TM) system (copyright 1992, Gaussian, Inc.),
 the Gaussian 90(TM) system (copyright 1990, Gaussian, Inc.),
 the Gaussian 88(TM) system (copyright 1988, Gaussian, Inc.),
 the Gaussian 86(TM) system (copyright 1986, Carnegie Mellon
 University), and the Gaussian 82(TM) system (copyright 1983,
 Carnegie Mellon University). Gaussian is a federally registered
 trademark of Gaussian, Inc.
  
 This software contains proprietary and confidential information,
 including trade secrets, belonging to Gaussian, Inc.
  
 This software is provided under written license and may be
 used, copied, transmitted, or stored only in accord with that
 written license.
  
 The following legend is applicable only to US Government
 contracts under FAR:
  
                    RESTRICTED RIGHTS LEGEND
  
 Use, reproduction and disclosure by the US Government is
 subject to restrictions as set forth in subparagraphs (a)
 and (c) of the Commercial Computer Software - Restricted
 Rights clause in FAR 52.227-19.
  
 Gaussian, Inc.
 340 Quinnipiac St., Bldg. 40, Wallingford CT 06492
  
  
 ---------------------------------------------------------------
 Warning -- This program may not be used in any manner that
 competes with the business of Gaussian, Inc. or will provide
 assistance to any competitor of Gaussian, Inc.  The licensee
 of this program is prohibited from giving any competitor of
 Gaussian, Inc. access to this program.  By using this program,
 the user acknowledges that Gaussian, Inc. is engaged in the
 business of creating and licensing software in the field of
 computational chemistry and represents and warrants to the
 licensee that it is not a competitor of Gaussian, Inc. and that
 it will not use this program in any manner prohibited above.
 ---------------------------------------------------------------
  

 Cite this work as:
 Gaussian 16, Revision A.03,
 M. J. Frisch, G. W. Trucks, H. B. Schlegel, G. E. Scuseria, 
 M. A. Robb, J. R. Cheeseman, G. Scalmani, V. Barone, 
 G. A. Petersson, H. Nakatsuji, X. Li, M. Caricato, A. V. Marenich, 
 J. Bloino, B. G. Janesko, R. Gomperts, B. Mennucci, H. P. Hratchian, 
 J. V. Ortiz, A. F. Izmaylov, J. L. Sonnenberg, D. Williams-Young, 
 F. Ding, F. Lipparini, F. Egidi, J. Goings, B. Peng, A. Petrone, 
 T. Henderson, D. Ranasinghe, V. G. Zakrzewski, J. Gao, N. Rega, 
 G. Zheng, W. Liang, M. Hada, M. Ehara, K. Toyota, R. Fukuda, 
 J. Hasegawa, M. Ishida, T. Nakajima, Y. Honda, O. Kitao, H. Nakai, 
 T. Vreven, K. Throssell, J. A. Montgomery, Jr., J. E. Peralta, 
 F. Ogliaro, M. J. Bearpark, J. J. Heyd, E. N. Brothers, K. N. Kudin, 
 V. N. Staroverov, T. A. Keith, R. Kobayashi, J. Normand, 
 K. Raghavachari, A. P. Rendell, J. C. Burant, S. S. Iyengar, 
 J. Tomasi, M. Cossi, J. M. Millam, M. Klene, C. Adamo, R. Cammi, 
 J. W. Ochterski, R. L. Martin, K. Morokuma, O. Farkas, 
 J. B. Foresman, and D. J. Fox, Gaussian, Inc., Wallingford CT, 2016.
 
 ******************************************
 Gaussian 16:  ES64L-G16RevA.03 25-Dec-2016
                25-Jan-2023 
 ******************************************
 %nprocshared=32
 Will use up to   32 processors via shared memory.
 %mem=41GB
 -----------------------------
 # wB97XD/aug-cc-pVDZ opt freq
 -----------------------------
 1/18=20,19=15,26=3,38=1/1,3;
 2/9=110,12=2,17=6,18=5,40=1/2;
 3/5=16,7=10,11=2,25=1,30=1,71=1,74=-58/1,2,3;
 4//1;
 5/5=2,38=5/2;
 6/7=2,8=2,9=2,10=2,28=1/1;
 7//1,2,3,16;
 1/18=20,19=15,26=3/3(2);
 2/9=110/2;
 99//99;
 2/9=110/2;
 3/5=16,7=10,11=2,25=1,30=1,71=1,74=-58/1,2,3;
 4/5=5,16=3,69=1/1;
 5/5=2,38=5/2;
 7//1,2,3,16;
 1/18=20,19=15,26=3/3(-5);
 2/9=110/2;
 6/7=2,8=2,9=2,10=2,19=2,28=1/1;
 99/9=1/99;
 ----
 blah
 ----
 Symbolic Z-matrix:
 Charge =  1 Multiplicity = 1
 C                     1.33527   1.14077  -0.1256 
 C                     1.38652  -0.23697  -0.36254 
 C                     2.64334  -0.84318  -0.39215 
 C                     3.77458  -0.06044  -0.19165 
 C                     3.6047    1.30354   0.04533 
 N                     2.40938   1.89946   0.08331 
 C                     0.13254  -1.04293  -0.56714 
 C                    -0.85133  -0.57001  -1.64404 
 C                    -2.23978  -1.08886  -1.19554 
 C                    -2.01949  -1.68663   0.20166 
 N                    -0.73863  -1.0755    0.6695 
 O                    -1.78485   1.37383   1.29851 
 H                    -1.86773  -2.77205   0.17225 
 H                    -2.63469  -1.85075  -1.87416 
 H                    -2.96424  -0.26927  -1.15565 
 H                    -0.84279   0.52369  -1.70353 
 H                    -0.54716  -0.95142  -2.62308 
 H                    -2.80522  -1.45501   0.9267 
 H                     0.40245  -2.09355  -0.74481 
 H                     0.37523   1.66133  -0.09285 
 H                     4.46913   1.94792   0.21212 
 H                     4.77218  -0.49514  -0.2162 
 H                     2.73909  -1.91447  -0.57703 
 C                    -0.13124  -1.73654   1.84306 
 H                    -0.97394  -0.09263   0.93076 
 H                    -2.53263   1.72324   0.77476 
 H                    -1.54495   2.05075   1.9355 
 O                    -3.84858   2.10801  -0.33625 
 H                    -3.76914   2.83925  -0.95618 
 H                    -4.75696   2.13925  -0.02141 
 H                     0.10752  -2.77383   1.58489 
 H                    -0.84545  -1.71229   2.67144 
 H                     0.78077  -1.20012   2.12035 
 O                    -3.89001   4.26743  -1.97888 
 H                    -4.24818   4.34442  -2.88233 
 H                    -3.60186   5.18196  -1.80242 
 
 Add virtual bond connecting atoms H25        and O12        Dist= 3.24D+00.
 Add virtual bond connecting atoms O34        and H29        Dist= 3.33D+00.
 Add virtual bond connecting atoms O28        and H26        Dist= 3.33D+00.

 GradGradGradGradGradGradGradGradGradGradGradGradGradGradGradGradGradGrad
 Berny optimization.
 Initialization pass.
                           ----------------------------
                           !    Initial Parameters    !
                           ! (Angstroms and Degrees)  !
 --------------------------                            --------------------------
 ! Name  Definition              Value          Derivative Info.                !
 --------------------------------------------------------------------------------
 ! R1    R(1,2)                  1.3989         estimate D2E/DX2                !
 ! R2    R(1,6)                  1.3315         estimate D2E/DX2                !
 ! R3    R(1,20)                 1.0926         estimate D2E/DX2                !
 ! R4    R(2,3)                  1.3957         estimate D2E/DX2                !
 ! R5    R(2,7)                  1.5046         estimate D2E/DX2                !
 ! R6    R(3,4)                  1.3902         estimate D2E/DX2                !
 ! R7    R(3,23)                 1.0913         estimate D2E/DX2                !
 ! R8    R(4,5)                  1.3948         estimate D2E/DX2                !
 ! R9    R(4,22)                 1.0885         estimate D2E/DX2                !
 ! R10   R(5,6)                  1.3362         estimate D2E/DX2                !
 ! R11   R(5,21)                 1.091          estimate D2E/DX2                !
 ! R12   R(7,8)                  1.5334         estimate D2E/DX2                !
 ! R13   R(7,11)                 1.513          estimate D2E/DX2                !
 ! R14   R(7,19)                 1.0992         estimate D2E/DX2                !
 ! R15   R(8,9)                  1.5486         estimate D2E/DX2                !
 ! R16   R(8,16)                 1.0953         estimate D2E/DX2                !
 ! R17   R(8,17)                 1.0939         estimate D2E/DX2                !
 ! R18   R(9,10)                 1.5356         estimate D2E/DX2                !
 ! R19   R(9,14)                 1.0941         estimate D2E/DX2                !
 ! R20   R(9,15)                 1.0946         estimate D2E/DX2                !
 ! R21   R(10,11)                1.4943         estimate D2E/DX2                !
 ! R22   R(10,13)                1.0964         estimate D2E/DX2                !
 ! R23   R(10,18)                1.0939         estimate D2E/DX2                !
 ! R24   R(11,24)                1.4775         estimate D2E/DX2                !
 ! R25   R(11,25)                1.0439         estimate D2E/DX2                !
 ! R26   R(12,25)                1.7156         estimate D2E/DX2                !
 ! R27   R(12,26)                0.9775         estimate D2E/DX2                !
 ! R28   R(12,27)                0.96           estimate D2E/DX2                !
 ! R29   R(24,31)                1.0953         estimate D2E/DX2                !
 ! R30   R(24,32)                1.094          estimate D2E/DX2                !
 ! R31   R(24,33)                1.0938         estimate D2E/DX2                !
 ! R32   R(26,28)                1.7647         estimate D2E/DX2                !
 ! R33   R(28,29)                0.9619         estimate D2E/DX2                !
 ! R34   R(28,30)                0.9619         estimate D2E/DX2                !
 ! R35   R(29,34)                1.7607         estimate D2E/DX2                !
 ! R36   R(34,35)                0.9749         estimate D2E/DX2                !
 ! R37   R(34,36)                0.975          estimate D2E/DX2                !
 ! A1    A(2,1,6)              123.9307         estimate D2E/DX2                !
 ! A2    A(2,1,20)             120.4313         estimate D2E/DX2                !
 ! A3    A(6,1,20)             115.6354         estimate D2E/DX2                !
 ! A4    A(1,2,3)              117.6686         estimate D2E/DX2                !
 ! A5    A(1,2,7)              121.3355         estimate D2E/DX2                !
 ! A6    A(3,2,7)              120.9939         estimate D2E/DX2                !
 ! A7    A(2,3,4)              119.0222         estimate D2E/DX2                !
 ! A8    A(2,3,23)             120.5948         estimate D2E/DX2                !
 ! A9    A(4,3,23)             120.3815         estimate D2E/DX2                !
 ! A10   A(3,4,5)              118.4251         estimate D2E/DX2                !
 ! A11   A(3,4,22)             121.1764         estimate D2E/DX2                !
 ! A12   A(5,4,22)             120.3984         estimate D2E/DX2                !
 ! A13   A(4,5,6)              123.3617         estimate D2E/DX2                !
 ! A14   A(4,5,21)             120.4682         estimate D2E/DX2                !
 ! A15   A(6,5,21)             116.17           estimate D2E/DX2                !
 ! A16   A(1,6,5)              117.5846         estimate D2E/DX2                !
 ! A17   A(2,7,8)              117.7122         estimate D2E/DX2                !
 ! A18   A(2,7,11)             112.3491         estimate D2E/DX2                !
 ! A19   A(2,7,19)             109.2272         estimate D2E/DX2                !
 ! A20   A(8,7,11)             102.193          estimate D2E/DX2                !
 ! A21   A(8,7,19)             109.8052         estimate D2E/DX2                !
 ! A22   A(11,7,19)            104.6505         estimate D2E/DX2                !
 ! A23   A(7,8,9)              105.5775         estimate D2E/DX2                !
 ! A24   A(7,8,16)             109.9433         estimate D2E/DX2                !
 ! A25   A(7,8,17)             110.0368         estimate D2E/DX2                !
 ! A26   A(9,8,16)             110.9319         estimate D2E/DX2                !
 ! A27   A(9,8,17)             113.0607         estimate D2E/DX2                !
 ! A28   A(16,8,17)            107.3001         estimate D2E/DX2                !
 ! A29   A(8,9,10)             105.3859         estimate D2E/DX2                !
 ! A30   A(8,9,14)             112.1668         estimate D2E/DX2                !
 ! A31   A(8,9,15)             110.6763         estimate D2E/DX2                !
 ! A32   A(10,9,14)            110.1863         estimate D2E/DX2                !
 ! A33   A(10,9,15)            110.6871         estimate D2E/DX2                !
 ! A34   A(14,9,15)            107.7664         estimate D2E/DX2                !
 ! A35   A(9,10,11)            104.3966         estimate D2E/DX2                !
 ! A36   A(9,10,13)            112.3861         estimate D2E/DX2                !
 ! A37   A(9,10,18)            114.6824         estimate D2E/DX2                !
 ! A38   A(11,10,13)           107.1355         estimate D2E/DX2                !
 ! A39   A(11,10,18)           108.7575         estimate D2E/DX2                !
 ! A40   A(13,10,18)           109.0753         estimate D2E/DX2                !
 ! A41   A(7,11,10)            104.2669         estimate D2E/DX2                !
 ! A42   A(7,11,24)            114.9676         estimate D2E/DX2                !
 ! A43   A(7,11,25)            108.3054         estimate D2E/DX2                !
 ! A44   A(10,11,24)           114.7124         estimate D2E/DX2                !
 ! A45   A(10,11,25)           105.6769         estimate D2E/DX2                !
 ! A46   A(24,11,25)           108.3688         estimate D2E/DX2                !
 ! A47   A(25,12,26)           123.5219         estimate D2E/DX2                !
 ! A48   A(25,12,27)           128.8188         estimate D2E/DX2                !
 ! A49   A(26,12,27)           107.1362         estimate D2E/DX2                !
 ! A50   A(11,24,31)           109.0326         estimate D2E/DX2                !
 ! A51   A(11,24,32)           108.8516         estimate D2E/DX2                !
 ! A52   A(11,24,33)           108.9478         estimate D2E/DX2                !
 ! A53   A(31,24,32)           109.985          estimate D2E/DX2                !
 ! A54   A(31,24,33)           110.026          estimate D2E/DX2                !
 ! A55   A(32,24,33)           109.9686         estimate D2E/DX2                !
 ! A56   A(11,25,12)           164.8014         estimate D2E/DX2                !
 ! A57   A(26,28,29)           120.6569         estimate D2E/DX2                !
 ! A58   A(26,28,30)           120.3469         estimate D2E/DX2                !
 ! A59   A(29,28,30)           105.3215         estimate D2E/DX2                !
 ! A60   A(29,34,35)           128.8684         estimate D2E/DX2                !
 ! A61   A(29,34,36)           129.4527         estimate D2E/DX2                !
 ! A62   A(35,34,36)           101.6678         estimate D2E/DX2                !
 ! A63   L(12,26,28,8,-1)      171.0175         estimate D2E/DX2                !
 ! A64   L(28,29,34,5,-1)      188.7691         estimate D2E/DX2                !
 ! A65   L(12,26,28,8,-2)      176.2947         estimate D2E/DX2                !
 ! A66   L(28,29,34,5,-2)      184.6314         estimate D2E/DX2                !
 ! D1    D(6,1,2,3)             -0.5995         estimate D2E/DX2                !
 ! D2    D(6,1,2,7)            178.8889         estimate D2E/DX2                !
 ! D3    D(20,1,2,3)          -179.9931         estimate D2E/DX2                !
 ! D4    D(20,1,2,7)            -0.5046         estimate D2E/DX2                !
 ! D5    D(2,1,6,5)              0.9014         estimate D2E/DX2                !
 ! D6    D(20,1,6,5)          -179.6786         estimate D2E/DX2                !
 ! D7    D(1,2,3,4)             -0.1994         estimate D2E/DX2                !
 ! D8    D(1,2,3,23)          -179.7588         estimate D2E/DX2                !
 ! D9    D(7,2,3,4)           -179.6897         estimate D2E/DX2                !
 ! D10   D(7,2,3,23)             0.7509         estimate D2E/DX2                !
 ! D11   D(1,2,7,8)             53.4664         estimate D2E/DX2                !
 ! D12   D(1,2,7,11)           -64.8218         estimate D2E/DX2                !
 ! D13   D(1,2,7,19)           179.5195         estimate D2E/DX2                !
 ! D14   D(3,2,7,8)           -127.0621         estimate D2E/DX2                !
 ! D15   D(3,2,7,11)           114.6497         estimate D2E/DX2                !
 ! D16   D(3,2,7,19)            -1.009          estimate D2E/DX2                !
 ! D17   D(2,3,4,5)              0.6324         estimate D2E/DX2                !
 ! D18   D(2,3,4,22)          -179.4551         estimate D2E/DX2                !
 ! D19   D(23,3,4,5)          -179.8071         estimate D2E/DX2                !
 ! D20   D(23,3,4,22)            0.1053         estimate D2E/DX2                !
 ! D21   D(3,4,5,6)             -0.3383         estimate D2E/DX2                !
 ! D22   D(3,4,5,21)           179.6858         estimate D2E/DX2                !
 ! D23   D(22,4,5,6)           179.7486         estimate D2E/DX2                !
 ! D24   D(22,4,5,21)           -0.2273         estimate D2E/DX2                !
 ! D25   D(4,5,6,1)             -0.4177         estimate D2E/DX2                !
 ! D26   D(21,5,6,1)           179.5591         estimate D2E/DX2                !
 ! D27   D(2,7,8,9)           -153.3884         estimate D2E/DX2                !
 ! D28   D(2,7,8,16)           -33.6725         estimate D2E/DX2                !
 ! D29   D(2,7,8,17)            84.3008         estimate D2E/DX2                !
 ! D30   D(11,7,8,9)           -29.8199         estimate D2E/DX2                !
 ! D31   D(11,7,8,16)           89.8959         estimate D2E/DX2                !
 ! D32   D(11,7,8,17)         -152.1308         estimate D2E/DX2                !
 ! D33   D(19,7,8,9)            80.8414         estimate D2E/DX2                !
 ! D34   D(19,7,8,16)         -159.4428         estimate D2E/DX2                !
 ! D35   D(19,7,8,17)          -41.4695         estimate D2E/DX2                !
 ! D36   D(2,7,11,10)          169.8397         estimate D2E/DX2                !
 ! D37   D(2,7,11,24)          -63.7021         estimate D2E/DX2                !
 ! D38   D(2,7,11,25)           57.6425         estimate D2E/DX2                !
 ! D39   D(8,7,11,10)           42.7374         estimate D2E/DX2                !
 ! D40   D(8,7,11,24)          169.1956         estimate D2E/DX2                !
 ! D41   D(8,7,11,25)          -69.4598         estimate D2E/DX2                !
 ! D42   D(19,7,11,10)         -71.7681         estimate D2E/DX2                !
 ! D43   D(19,7,11,24)          54.6901         estimate D2E/DX2                !
 ! D44   D(19,7,11,25)         176.0347         estimate D2E/DX2                !
 ! D45   D(7,8,9,10)             6.7277         estimate D2E/DX2                !
 ! D46   D(7,8,9,14)          -113.1782         estimate D2E/DX2                !
 ! D47   D(7,8,9,15)           126.4286         estimate D2E/DX2                !
 ! D48   D(16,8,9,10)         -112.334          estimate D2E/DX2                !
 ! D49   D(16,8,9,14)          127.7601         estimate D2E/DX2                !
 ! D50   D(16,8,9,15)            7.3669         estimate D2E/DX2                !
 ! D51   D(17,8,9,10)          127.0767         estimate D2E/DX2                !
 ! D52   D(17,8,9,14)            7.1707         estimate D2E/DX2                !
 ! D53   D(17,8,9,15)         -113.2225         estimate D2E/DX2                !
 ! D54   D(8,9,10,11)           19.4053         estimate D2E/DX2                !
 ! D55   D(8,9,10,13)          -96.3612         estimate D2E/DX2                !
 ! D56   D(8,9,10,18)          138.3091         estimate D2E/DX2                !
 ! D57   D(14,9,10,11)         140.611          estimate D2E/DX2                !
 ! D58   D(14,9,10,13)          24.8445         estimate D2E/DX2                !
 ! D59   D(14,9,10,18)        -100.4852         estimate D2E/DX2                !
 ! D60   D(15,9,10,11)        -100.2884         estimate D2E/DX2                !
 ! D61   D(15,9,10,13)         143.945          estimate D2E/DX2                !
 ! D62   D(15,9,10,18)          18.6154         estimate D2E/DX2                !
 ! D63   D(9,10,11,7)          -38.8842         estimate D2E/DX2                !
 ! D64   D(9,10,11,24)        -165.5019         estimate D2E/DX2                !
 ! D65   D(9,10,11,25)          75.1928         estimate D2E/DX2                !
 ! D66   D(13,10,11,7)          80.4958         estimate D2E/DX2                !
 ! D67   D(13,10,11,24)        -46.1218         estimate D2E/DX2                !
 ! D68   D(13,10,11,25)       -165.4272         estimate D2E/DX2                !
 ! D69   D(18,10,11,7)        -161.737          estimate D2E/DX2                !
 ! D70   D(18,10,11,24)         71.6454         estimate D2E/DX2                !
 ! D71   D(18,10,11,25)        -47.66           estimate D2E/DX2                !
 ! D72   D(7,11,24,31)         -59.4628         estimate D2E/DX2                !
 ! D73   D(7,11,24,32)        -179.4505         estimate D2E/DX2                !
 ! D74   D(7,11,24,33)          60.632          estimate D2E/DX2                !
 ! D75   D(10,11,24,31)         61.4368         estimate D2E/DX2                !
 ! D76   D(10,11,24,32)        -58.5509         estimate D2E/DX2                !
 ! D77   D(10,11,24,33)       -178.4685         estimate D2E/DX2                !
 ! D78   D(25,11,24,31)        179.2271         estimate D2E/DX2                !
 ! D79   D(25,11,24,32)         59.2394         estimate D2E/DX2                !
 ! D80   D(25,11,24,33)        -60.6782         estimate D2E/DX2                !
 ! D81   D(7,11,25,12)         120.3739         estimate D2E/DX2                !
 ! D82   D(10,11,25,12)          9.1231         estimate D2E/DX2                !
 ! D83   D(24,11,25,12)       -114.2933         estimate D2E/DX2                !
 ! D84   D(26,12,25,11)        -43.6891         estimate D2E/DX2                !
 ! D85   D(27,12,25,11)        145.7054         estimate D2E/DX2                !
 ! D86   D(25,12,28,29)       -107.8068         estimate D2E/DX2                !
 ! D87   D(25,12,28,30)        113.6499         estimate D2E/DX2                !
 ! D88   D(27,12,28,29)         64.3322         estimate D2E/DX2                !
 ! D89   D(27,12,28,30)        -74.211          estimate D2E/DX2                !
 ! D90   D(26,28,34,35)        144.0144         estimate D2E/DX2                !
 ! D91   D(26,28,34,36)        -40.1974         estimate D2E/DX2                !
 ! D92   D(30,28,34,35)        -79.0648         estimate D2E/DX2                !
 ! D93   D(30,28,34,36)         96.7234         estimate D2E/DX2                !
 --------------------------------------------------------------------------------
 Trust Radius=3.00D-01 FncErr=1.00D-07 GrdErr=1.00D-06 EigMax=2.50D+02 EigMin=1.00D-04
 Number of steps in this run=    206 maximum allowed number of steps=    216.
 GradGradGradGradGradGradGradGradGradGradGradGradGradGradGradGradGradGrad

                          Input orientation:                          
 ---------------------------------------------------------------------
 Center     Atomic      Atomic             Coordinates (Angstroms)
 Number     Number       Type             X           Y           Z
 ---------------------------------------------------------------------
      1          6           0        1.335273    1.140773   -0.125597
      2          6           0        1.386524   -0.236970   -0.362542
      3          6           0        2.643342   -0.843182   -0.392147
      4          6           0        3.774581   -0.060435   -0.191650
      5          6           0        3.604702    1.303536    0.045328
      6          7           0        2.409375    1.899460    0.083309
      7          6           0        0.132540   -1.042932   -0.567142
      8          6           0       -0.851325   -0.570008   -1.644036
      9          6           0       -2.239784   -1.088857   -1.195535
     10          6           0       -2.019492   -1.686626    0.201657
     11          7           0       -0.738632   -1.075495    0.669504
     12          8           0       -1.784848    1.373832    1.298506
     13          1           0       -1.867729   -2.772046    0.172253
     14          1           0       -2.634691   -1.850752   -1.874162
     15          1           0       -2.964236   -0.269269   -1.155645
     16          1           0       -0.842785    0.523690   -1.703529
     17          1           0       -0.547161   -0.951416   -2.623079
     18          1           0       -2.805222   -1.455009    0.926696
     19          1           0        0.402451   -2.093548   -0.744809
     20          1           0        0.375233    1.661326   -0.092851
     21          1           0        4.469131    1.947924    0.212122
     22          1           0        4.772179   -0.495144   -0.216203
     23          1           0        2.739087   -1.914466   -0.577027
     24          6           0       -0.131239   -1.736536    1.843059
     25          1           0       -0.973938   -0.092628    0.930757
     26          1           0       -2.532626    1.723243    0.774758
     27          1           0       -1.544948    2.050752    1.935501
     28          8           0       -3.848580    2.108010   -0.336250
     29          1           0       -3.769140    2.839252   -0.956179
     30          1           0       -4.756959    2.139255   -0.021405
     31          1           0        0.107523   -2.773827    1.584893
     32          1           0       -0.845452   -1.712290    2.671439
     33          1           0        0.780769   -1.200120    2.120349
     34          8           0       -3.890012    4.267435   -1.978878
     35          1           0       -4.248179    4.344417   -2.882326
     36          1           0       -3.601865    5.181964   -1.802421
 ---------------------------------------------------------------------
                    Distance matrix (angstroms):
                    1          2          3          4          5
     1  C    0.000000
     2  C    1.398909   0.000000
     3  C    2.391270   1.395694   0.000000
     4  C    2.719832   2.400663   1.390178   0.000000
     5  C    2.281669   2.731269   2.392487   1.394788   0.000000
     6  N    1.331519   2.410257   2.793364   2.404283   1.336179
     7  C    2.531817   1.504630   2.524807   3.790878   4.235203
     8  C    3.164434   2.600213   3.722170   4.875253   5.120576
     9  C    4.347074   3.817027   4.954867   6.183690   6.435938
    10  C    4.399515   3.744432   4.775565   6.030793   6.371583
    11  N    3.137692   2.506897   3.552298   4.705425   4.991386
    12  O    3.437665   3.925731   5.232812   5.931689   5.533773
    13  H    5.065381   4.159661   4.938504   6.270640   6.824513
    14  H    5.269470   4.589058   5.573975   6.864026   7.250103
    15  H    4.640581   4.422575   5.688342   6.810621   6.860539
    16  H    2.759456   2.710474   3.967511   4.893572   4.842190
    17  H    3.762742   3.059346   3.894622   5.038169   5.426156
    18  H    4.998910   4.551537   5.639196   6.818309   7.033741
    19  H    3.422632   2.135746   2.590247   3.976279   4.734861
    20  H    1.092577   2.167711   3.392117   3.811796   3.252165
    21  H    3.253708   3.821841   3.389531   2.163085   1.091006
    22  H    3.807461   3.398636   2.164263   1.088474   2.160243
    23  H    3.392487   2.165508   1.091328   2.158285   3.390008
    24  C    3.782218   3.068710   3.673218   4.712195   5.141121
    25  H    2.823051   2.695411   3.924044   4.879474   4.867977
    26  H    4.013795   4.527209   5.893967   6.625429   6.194757
    27  H    3.656755   4.371293   5.597729   6.105675   5.536242
    28  O    5.277523   5.736370   7.131459   7.926894   7.506277
    29  H    5.443320   6.032944   7.416089   8.117907   7.598354
    30  H    6.174392   6.595847   7.987292   8.812196   8.403586
    31  H    4.444912   3.444414   3.750527   4.895500   5.587970
    32  H    4.551806   4.045161   4.723621   5.680723   5.982937
    33  H    3.291129   2.731180   3.147891   3.950586   4.306809
    34  O    6.365082   7.123485   8.445166   8.981683   8.309804
    35  H    7.002702   7.686892   8.978042   9.539767   8.915484
    36  H    6.596840   7.504806   8.791693   9.191805   8.389934
                    6          7          8          9         10
     6  N    0.000000
     7  C    3.776868   0.000000
     8  C    4.440063   1.533411   0.000000
     9  C    5.672756   2.454569   1.548604   0.000000
    10  C    5.699902   2.374160   2.453168   1.535579   0.000000
    11  N    4.370804   1.513041   2.370798   2.394161   1.494311
    12  O    4.398238   3.605242   3.648086   3.534409   3.259530
    13  H    6.334390   2.745472   3.030009   2.200544   1.096373
    14  H    6.583190   3.165192   2.207636   1.094061   2.171274
    15  H    5.925714   3.245753   2.189375   1.094599   2.178006
    16  H    3.957534   2.167242   1.095348   2.193165   3.146406
    17  H    4.918652   2.167313   1.093852   2.218501   3.269163
    18  H    6.257458   3.321416   3.348075   2.226579   1.093938
    19  H    4.545067   1.099187   2.168349   2.862510   2.631956
    20  H    2.055596   2.756241   2.981522   3.951928   4.126769
    21  H    2.064349   5.325269   6.171917   7.497538   7.437223
    22  H    3.377377   4.685027   5.802423   7.104872   6.908041
    23  H    3.884686   2.748410   3.979590   5.084618   4.827249
    24  C    4.771992   2.521851   3.746884   3.754797   2.502437
    25  H    4.016639   2.090711   2.621542   2.667575   2.040980
    26  H    4.993248   4.068849   3.733140   3.446116   3.495563
    27  H    4.369230   4.318341   4.490276   4.488132   4.147216
    28  O    6.275470   5.082427   4.226774   3.680564   4.246666
    29  H    6.335439   5.517772   4.539807   4.222116   4.988529
    30  H    7.171109   5.859295   5.022650   4.258575   4.709655
    31  H    5.421521   2.761861   4.025194   4.009957   2.760352
    32  H    5.507908   3.448611   4.464098   4.157682   2.734749
    33  H    4.050838   2.769028   4.151068   4.486781   3.429217
    34  O    7.038621   6.809840   5.722464   5.659217   6.610932
    35  H    7.687382   7.319448   6.101111   6.033190   7.131022
    36  H    7.103929   7.363493   6.377753   6.445679   7.327876
                   11         12         13         14         15
    11  N    0.000000
    12  O    2.736679   0.000000
    13  H    2.097714   4.296931   0.000000
    14  H    3.265930   4.602825   2.371672   0.000000
    15  H    2.989060   3.180188   3.038015   1.768037   0.000000
    16  H    2.863481   3.259208   3.928224   2.979600   2.330132
    17  H    3.300479   4.724138   3.587823   2.393212   2.908769
    18  H    2.116831   3.030140   1.784002   2.833813   2.401543
    19  H    2.082975   4.580626   2.540685   3.249403   3.851151
    20  H    3.051568   2.585436   4.975535   4.956552   4.001098
    21  H    6.039127   6.373544   7.901614   8.321467   7.876654
    22  H    5.611624   6.984412   7.030189   7.710267   7.796518
    23  H    3.788435   5.898857   4.745484   5.528482   5.964006
    24  C    1.477543   3.564456   2.622836   4.483085   4.378467
    25  H    1.043863   1.715610   2.924632   3.703602   2.888869
    26  H    3.326023   0.977534   4.583964   4.449790   2.807641
    27  H    3.467898   0.959966   5.145154   5.560828   4.117288
    28  O    4.562677   2.733210   5.291247   4.417069   2.665507
    29  H    5.210765   3.341927   6.031201   4.911803   3.217229
    30  H    5.192198   3.340880   5.701406   4.884351   3.209571
    31  H    2.106715   4.567949   2.428410   4.509642   4.818616
    32  H    2.103488   3.505932   2.900701   4.887027   4.606314
    33  H    2.104534   3.725996   3.644252   5.295735   5.061984
    34  O    6.744777   4.852411   7.633563   6.246520   4.702814
    35  H    7.369387   5.689616   8.101916   6.480730   5.090780
    36  H    7.311929   5.236332   8.376923   7.099272   5.526376
                   16         17         18         19         20
    16  H    0.000000
    17  H    1.763208   0.000000
    18  H    3.832035   4.237139   0.000000
    19  H    3.052817   2.394604   3.672986   0.000000
    20  H    2.317772   3.752237   4.567966   3.811151   0.000000
    21  H    5.823625   6.450405   8.062678   5.812667   4.115234
    22  H    5.897286   5.856331   7.722989   4.682824   4.898848
    23  H    4.476988   3.989138   5.762955   2.349487   4.313759
    24  C    4.265349   4.553657   2.840627   2.666335   3.943314
    25  H    2.708600   3.680952   2.282477   2.950534   2.438112
    26  H    3.230541   4.758274   3.193537   5.048926   3.035164
    27  H    4.008427   5.548806   3.859577   5.305813   2.820099
    28  O    3.662557   5.048667   3.921573   5.990933   4.254335
    29  H    3.805774   5.246796   4.786965   6.463696   4.394163
    30  H    4.556353   5.834668   4.198441   6.712633   5.154892
    31  H    4.752938   4.632151   3.264443   2.444846   4.749429
    32  H    4.913243   5.357222   2.636479   3.656962   4.529090
    33  H    4.497721   4.932075   3.788022   3.024974   3.640136
    34  O    4.834980   6.231055   6.508878   7.772404   5.342398
    35  H    5.252069   6.466111   7.086898   8.224642   6.029601
    36  H    5.414962   6.900945   7.220258   8.371748   5.579859
                   21         22         23         24         25
    21  H    0.000000
    22  H    2.498776   0.000000
    23  H    4.305098   2.505620   0.000000
    24  C    6.115440   5.461238   3.758623   0.000000
    25  H    5.857242   5.873278   4.402165   2.060308   0.000000
    26  H    7.027919   7.698274   6.546083   4.344882   2.398173
    27  H    6.256977   7.142654   6.355211   4.043596   2.435085
    28  O    8.337305   9.006015   7.722412   5.774820   3.835581
    29  H    8.368303   9.198907   8.068371   6.481350   4.468736
    30  H    9.231028   9.888502   8.540028   6.316270   4.494348
    31  H    6.572903   5.495030   3.512482   1.095276   2.964166
    32  H    6.905809   6.432550   4.841728   1.094030   2.381132
    33  H    5.211096   4.678442   3.408979   1.093796   2.391791
    34  O    8.947395  10.041052   9.172025   8.048804   5.998301
    35  H    9.555642  10.578111   9.659706   8.732494   6.704299
    36  H    8.925154  10.240618   9.595237   8.555724   6.495967
                   26         27         28         29         30
    26  H    0.000000
    27  H    1.558876   0.000000
    28  O    1.764687   3.235870   0.000000
    29  H    2.402204   3.732369   0.961945   0.000000
    30  H    2.398874   3.762224   0.961902   1.529570   0.000000
    31  H    5.277343   5.111766   6.570683   7.279575   7.098011
    32  H    4.271632   3.897613   5.714863   6.513378   6.114384
    33  H    4.619010   4.001412   6.197538   6.817861   6.812119
    34  O    3.987219   5.073004   2.713496   1.760747   3.018683
    35  H    4.815386   5.981623   3.412286   2.490992   3.647803
    36  H    4.443858   5.292207   3.414633   2.496479   3.710032
                   31         32         33         34         35
    31  H    0.000000
    32  H    1.793211   0.000000
    33  H    1.793468   1.791818   0.000000
    34  O    8.846475   8.164062   8.277319   0.000000
    35  H    9.465600   8.894187   9.003276   0.974899   0.000000
    36  H    9.408935   8.668562   8.679090   0.974951   1.511754
                   36
    36  H    0.000000
 Stoichiometry    C10H21N2O3(1+)
 Framework group  C1[X(C10H21N2O3)]
 Deg. of freedom   102
 Full point group                 C1      NOp   1
 Largest Abelian subgroup         C1      NOp   1
 Largest concise Abelian subgroup C1      NOp   1
                         Standard orientation:                         
 ---------------------------------------------------------------------
 Center     Atomic      Atomic             Coordinates (Angstroms)
 Number     Number       Type             X           Y           Z
 ---------------------------------------------------------------------
      1          6           0        1.249400    1.333568    0.162329
      2          6           0        1.768716    0.174531   -0.424091
      3          6           0        3.141713    0.132524   -0.671226
      4          6           0        3.922006    1.231906   -0.331969
      5          6           0        3.298803    2.332085    0.256808
      6          7           0        1.987286    2.387197    0.506327
      7          6           0        0.883627   -0.992857   -0.767213
      8          6           0       -0.350569   -0.720946   -1.635644
      9          6           0       -1.369783   -1.827352   -1.267886
     10          6           0       -0.744410   -2.580431   -0.084761
     11          7           0        0.275302   -1.634117    0.460803
     12          8           0       -1.494948    0.006223    1.751118
     13          1           0       -0.210104   -3.484225   -0.400526
     14          1           0       -1.550979   -2.514664   -2.099595
     15          1           0       -2.330796   -1.388066   -0.982179
     16          1           0       -0.753615    0.272575   -1.411463
     17          1           0       -0.073313   -0.728342   -2.693749
     18          1           0       -1.445822   -2.840292    0.713483
     19          1           0        1.492087   -1.786785   -1.222917
     20          1           0        0.180946    1.414805    0.375707
     21          1           0        3.880022    3.210530    0.541085
     22          1           0        4.994576    1.240313   -0.517167
     23          1           0        3.596759   -0.746631   -1.130592
     24          6           0        1.246962   -2.242950    1.392646
     25          1           0       -0.264302   -0.905414    0.977977
     26          1           0       -2.386435    0.139493    1.372883
     27          1           0       -1.430924    0.565894    2.528423
     28          8           0       -3.898184    0.209795    0.465253
     29          1           0       -4.184312    1.029816    0.051690
     30          1           0       -4.698208   -0.187540    0.822105
     31          1           0        1.810205   -3.019597    0.864246
     32          1           0        0.702532   -2.682617    2.233593
     33          1           0        1.927660   -1.466460    1.753345
     34          8           0       -4.969313    2.481971   -0.560883
     35          1           0       -5.457982    2.607718   -1.395041
     36          1           0       -5.015339    3.373544   -0.169080
 ---------------------------------------------------------------------
 Rotational constants (GHZ):           0.6306213           0.3060678           0.2451786
 Standard basis: Aug-CC-pVDZ (5D, 7F)
 There are   564 symmetry adapted cartesian basis functions of A   symmetry.
 There are   534 symmetry adapted basis functions of A   symmetry.
   534 basis functions,   876 primitive gaussians,   564 cartesian basis functions
    59 alpha electrons       59 beta electrons
       nuclear repulsion energy      1063.8751208670 Hartrees.
 NAtoms=   36 NActive=   36 NUniq=   36 SFac= 1.00D+00 NAtFMM=   60 NAOKFM=F Big=F
 Integral buffers will be    131072 words long.
 Raffenetti 2 integral format.
 Two-electron integral symmetry is turned on.
 Nuclear repulsion after empirical dispersion term =     1063.8482471304 Hartrees.
 One-electron integrals computed using PRISM.
 NBasis=   534 RedAO= T EigKep=  2.25D-06  NBF=   534
 NBsUse=   534 1.00D-06 EigRej= -1.00D+00 NBFU=   534
 ExpMin= 2.97D-02 ExpMax= 1.17D+04 ExpMxC= 4.01D+02 IAcc=3 IRadAn=         5 AccDes= 0.00D+00
 Harris functional with IExCor= 4639 and IRadAn=       5 diagonalized for initial guess.
 HarFok:  IExCor= 4639 AccDes= 0.00D+00 IRadAn=         5 IDoV= 1 UseB2=F ITyADJ=14
 ICtDFT=  3500011 ScaDFX=  1.000000  1.000000  1.000000  1.000000
 FoFCou: FMM=F IPFlag=           0 FMFlag=      100000 FMFlg1=           0
         NFxFlg=           0 DoJE=T BraDBF=F KetDBF=T FulRan=T
         wScrn=  0.000000 ICntrl=       500 IOpCl=  0 I1Cent=   200000004 NGrid=           0
         NMat0=    1 NMatS0=      1 NMatT0=    0 NMatD0=    1 NMtDS0=    0 NMtDT0=    0
 Petite list used in FoFCou.
 Requested convergence on RMS density matrix=1.00D-08 within 128 cycles.
 Requested convergence on MAX density matrix=1.00D-06.
 Requested convergence on             energy=1.00D-06.
 No special actions if energy rises.
 SCF Done:  E(RwB97XD) =  -728.589471444     A.U. after   14 cycles
            NFock= 14  Conv=0.81D-08     -V/T= 2.0064

 **********************************************************************

            Population analysis using the SCF density.

 **********************************************************************

 Orbital symmetries:
       Occupied  (A) (A) (A) (A) (A) (A) (A) (A) (A) (A) (A) (A)
                 (A) (A) (A) (A) (A) (A) (A) (A) (A) (A) (A) (A)
                 (A) (A) (A) (A) (A) (A) (A) (A) (A) (A) (A) (A)
                 (A) (A) (A) (A) (A) (A) (A) (A) (A) (A) (A) (A)
                 (A) (A) (A) (A) (A) (A) (A) (A) (A) (A) (A)
       Virtual   (A) (A) (A) (A) (A) (A) (A) (A) (A) (A) (A) (A)
                 (A) (A) (A) (A) (A) (A) (A) (A) (A) (A) (A) (A)
                 (A) (A) (A) (A) (A) (A) (A) (A) (A) (A) (A) (A)
                 (A) (A) (A) (A) (A) (A) (A) (A) (A) (A) (A) (A)
                 (A) (A) (A) (A) (A) (A) (A) (A) (A) (A) (A) (A)
                 (A) (A) (A) (A) (A) (A) (A) (A) (A) (A) (A) (A)
                 (A) (A) (A) (A) (A) (A) (A) (A) (A) (A) (A) (A)
                 (A) (A) (A) (A) (A) (A) (A) (A) (A) (A) (A) (A)
                 (A) (A) (A) (A) (A) (A) (A) (A) (A) (A) (A) (A)
                 (A) (A) (A) (A) (A) (A) (A) (A) (A) (A) (A) (A)
                 (A) (A) (A) (A) (A) (A) (A) (A) (A) (A) (A) (A)
                 (A) (A) (A) (A) (A) (A) (A) (A) (A) (A) (A) (A)
                 (A) (A) (A) (A) (A) (A) (A) (A) (A) (A) (A) (A)
                 (A) (A) (A) (A) (A) (A) (A) (A) (A) (A) (A) (A)
                 (A) (A) (A) (A) (A) (A) (A) (A) (A) (A) (A) (A)
                 (A) (A) (A) (A) (A) (A) (A) (A) (A) (A) (A) (A)
                 (A) (A) (A) (A) (A) (A) (A) (A) (A) (A) (A) (A)
                 (A) (A) (A) (A) (A) (A) (A) (A) (A) (A) (A) (A)
                 (A) (A) (A) (A) (A) (A) (A) (A) (A) (A) (A) (A)
                 (A) (A) (A) (A) (A) (A) (A) (A) (A) (A) (A) (A)
                 (A) (A) (A) (A) (A) (A) (A) (A) (A) (A) (A) (A)
                 (A) (A) (A) (A) (A) (A) (A) (A) (A) (A) (A) (A)
                 (A) (A) (A) (A) (A) (A) (A) (A) (A) (A) (A) (A)
                 (A) (A) (A) (A) (A) (A) (A) (A) (A) (A) (A) (A)
                 (A) (A) (A) (A) (A) (A) (A) (A) (A) (A) (A) (A)
                 (A) (A) (A) (A) (A) (A) (A) (A) (A) (A) (A) (A)
                 (A) (A) (A) (A) (A) (A) (A) (A) (A) (A) (A) (A)
                 (A) (A) (A) (A) (A) (A) (A) (A) (A) (A) (A) (A)
                 (A) (A) (A) (A) (A) (A) (A) (A) (A) (A) (A) (A)
                 (A) (A) (A) (A) (A) (A) (A) (A) (A) (A) (A) (A)
                 (A) (A) (A) (A) (A) (A) (A) (A) (A) (A) (A) (A)
                 (A) (A) (A) (A) (A) (A) (A) (A) (A) (A) (A) (A)
                 (A) (A) (A) (A) (A) (A) (A) (A) (A) (A) (A) (A)
                 (A) (A) (A) (A) (A) (A) (A) (A) (A) (A) (A) (A)
                 (A) (A) (A) (A) (A) (A) (A) (A) (A) (A) (A) (A)
                 (A) (A) (A) (A) (A) (A) (A) (A) (A) (A) (A) (A)
                 (A) (A) (A) (A) (A) (A) (A) (A) (A) (A) (A) (A)
                 (A) (A) (A) (A) (A) (A) (A) (A) (A) (A) (A) (A)
                 (A) (A) (A) (A) (A) (A) (A) (A) (A) (A) (A) (A)
                 (A) (A) (A) (A) (A) (A) (A)
 The electronic state is 1-A.
 Alpha  occ. eigenvalues --  -19.40733 -19.40112 -19.38829 -14.68580 -14.55865
 Alpha  occ. eigenvalues --  -10.49064 -10.47977 -10.47801 -10.44861 -10.44257
 Alpha  occ. eigenvalues --  -10.43790 -10.43590 -10.43302 -10.43032 -10.41886
 Alpha  occ. eigenvalues --   -1.25501  -1.24731  -1.24166  -1.22839  -1.16029
 Alpha  occ. eigenvalues --   -1.05473  -1.03533  -0.99898  -0.95577  -0.94042
 Alpha  occ. eigenvalues --   -0.88401  -0.84208  -0.83966  -0.82397  -0.76803
 Alpha  occ. eigenvalues --   -0.75741  -0.74465  -0.74399  -0.73848  -0.71904
 Alpha  occ. eigenvalues --   -0.71119  -0.68994  -0.68140  -0.65550  -0.65178
 Alpha  occ. eigenvalues --   -0.64283  -0.63753  -0.62244  -0.61757  -0.61332
 Alpha  occ. eigenvalues --   -0.60194  -0.60045  -0.59160  -0.57958  -0.57383
 Alpha  occ. eigenvalues --   -0.57231  -0.55488  -0.54533  -0.53515  -0.53383
 Alpha  occ. eigenvalues --   -0.52286  -0.48108  -0.45184  -0.44836
 Alpha virt. eigenvalues --   -0.07809  -0.07295  -0.06797  -0.05999  -0.05117
 Alpha virt. eigenvalues --   -0.04465  -0.03848  -0.03182  -0.03039  -0.02379
 Alpha virt. eigenvalues --   -0.02256  -0.01492  -0.01319  -0.01034  -0.00609
 Alpha virt. eigenvalues --   -0.00189  -0.00083   0.00561   0.01064   0.01604
 Alpha virt. eigenvalues --    0.01843   0.02099   0.02140   0.02596   0.03096
 Alpha virt. eigenvalues --    0.03762   0.04146   0.04399   0.04667   0.05141
 Alpha virt. eigenvalues --    0.05291   0.05450   0.05750   0.06170   0.06391
 Alpha virt. eigenvalues --    0.06647   0.06823   0.06978   0.07207   0.07515
 Alpha virt. eigenvalues --    0.07806   0.07933   0.08085   0.08412   0.08798
 Alpha virt. eigenvalues --    0.08997   0.09193   0.09402   0.09928   0.10442
 Alpha virt. eigenvalues --    0.10898   0.11082   0.11322   0.11557   0.11739
 Alpha virt. eigenvalues --    0.11925   0.12410   0.12694   0.12890   0.13093
 Alpha virt. eigenvalues --    0.13467   0.14249   0.14481   0.14693   0.15199
 Alpha virt. eigenvalues --    0.15480   0.15879   0.16147   0.16392   0.16650
 Alpha virt. eigenvalues --    0.17020   0.17514   0.17788   0.18032   0.18257
 Alpha virt. eigenvalues --    0.18853   0.19081   0.19323   0.19821   0.20106
 Alpha virt. eigenvalues --    0.20316   0.20705   0.21057   0.21595   0.21808
 Alpha virt. eigenvalues --    0.22253   0.22427   0.22762   0.22994   0.23097
 Alpha virt. eigenvalues --    0.23524   0.24031   0.24604   0.24765   0.25376
 Alpha virt. eigenvalues --    0.25546   0.25946   0.26353   0.26536   0.27234
 Alpha virt. eigenvalues --    0.27429   0.27712   0.28113   0.28378   0.28722
 Alpha virt. eigenvalues --    0.29184   0.29545   0.29795   0.30360   0.30801
 Alpha virt. eigenvalues --    0.30940   0.31293   0.31732   0.32483   0.32862
 Alpha virt. eigenvalues --    0.33129   0.33397   0.34055   0.34362   0.34533
 Alpha virt. eigenvalues --    0.34875   0.35661   0.36097   0.36587   0.37232
 Alpha virt. eigenvalues --    0.38244   0.38508   0.38964   0.39333   0.39662
 Alpha virt. eigenvalues --    0.40173   0.40306   0.41011   0.41307   0.41584
 Alpha virt. eigenvalues --    0.42378   0.42977   0.43234   0.43378   0.43693
 Alpha virt. eigenvalues --    0.44004   0.44470   0.44894   0.45382   0.45776
 Alpha virt. eigenvalues --    0.45827   0.46346   0.46990   0.47473   0.48300
 Alpha virt. eigenvalues --    0.48575   0.49310   0.49553   0.49903   0.50157
 Alpha virt. eigenvalues --    0.50668   0.50926   0.51154   0.51825   0.51994
 Alpha virt. eigenvalues --    0.52252   0.52641   0.53191   0.53771   0.53902
 Alpha virt. eigenvalues --    0.54325   0.54730   0.55096   0.55466   0.56106
 Alpha virt. eigenvalues --    0.56387   0.56875   0.57138   0.57264   0.57606
 Alpha virt. eigenvalues --    0.58227   0.58486   0.58970   0.59739   0.60437
 Alpha virt. eigenvalues --    0.60736   0.61337   0.61495   0.61653   0.62253
 Alpha virt. eigenvalues --    0.62464   0.62921   0.63179   0.63733   0.64533
 Alpha virt. eigenvalues --    0.64652   0.65040   0.65992   0.66473   0.67117
 Alpha virt. eigenvalues --    0.67483   0.67944   0.68204   0.68663   0.69524
 Alpha virt. eigenvalues --    0.69862   0.69899   0.70444   0.70930   0.71481
 Alpha virt. eigenvalues --    0.71669   0.71788   0.73043   0.73383   0.73844
 Alpha virt. eigenvalues --    0.74505   0.75157   0.75469   0.76461   0.77374
 Alpha virt. eigenvalues --    0.77748   0.78059   0.78758   0.78957   0.79494
 Alpha virt. eigenvalues --    0.79869   0.80096   0.80188   0.81344   0.81754
 Alpha virt. eigenvalues --    0.82864   0.83648   0.83783   0.85057   0.85953
 Alpha virt. eigenvalues --    0.86669   0.87314   0.88081   0.89114   0.89541
 Alpha virt. eigenvalues --    0.90401   0.90761   0.91525   0.92015   0.92182
 Alpha virt. eigenvalues --    0.93642   0.94567   0.94731   0.95341   0.96436
 Alpha virt. eigenvalues --    0.97057   0.98050   0.98618   0.98996   1.00267
 Alpha virt. eigenvalues --    1.00711   1.01541   1.02021   1.02545   1.03225
 Alpha virt. eigenvalues --    1.04160   1.05157   1.05752   1.07601   1.08882
 Alpha virt. eigenvalues --    1.09196   1.09419   1.10187   1.11478   1.12699
 Alpha virt. eigenvalues --    1.12752   1.13821   1.14173   1.14802   1.15195
 Alpha virt. eigenvalues --    1.15836   1.16775   1.18188   1.18811   1.19294
 Alpha virt. eigenvalues --    1.21192   1.22428   1.24018   1.24533   1.25704
 Alpha virt. eigenvalues --    1.27013   1.29420   1.30199   1.30761   1.32481
 Alpha virt. eigenvalues --    1.33496   1.33873   1.34812   1.35495   1.35686
 Alpha virt. eigenvalues --    1.37500   1.38533   1.38904   1.39917   1.41308
 Alpha virt. eigenvalues --    1.42681   1.43036   1.43917   1.45044   1.45124
 Alpha virt. eigenvalues --    1.46582   1.46972   1.47984   1.48549   1.49975
 Alpha virt. eigenvalues --    1.50732   1.51500   1.52444   1.53160   1.53525
 Alpha virt. eigenvalues --    1.54660   1.55411   1.57305   1.58004   1.58845
 Alpha virt. eigenvalues --    1.59189   1.59855   1.61312   1.62727   1.63512
 Alpha virt. eigenvalues --    1.64514   1.66162   1.66437   1.68027   1.68568
 Alpha virt. eigenvalues --    1.69223   1.69803   1.70370   1.71533   1.72036
 Alpha virt. eigenvalues --    1.72104   1.73180   1.73671   1.74888   1.75587
 Alpha virt. eigenvalues --    1.76125   1.77058   1.77766   1.79074   1.79463
 Alpha virt. eigenvalues --    1.79780   1.80466   1.81194   1.82160   1.82974
 Alpha virt. eigenvalues --    1.84026   1.84482   1.85429   1.85938   1.87172
 Alpha virt. eigenvalues --    1.88079   1.88357   1.89167   1.90006   1.91875
 Alpha virt. eigenvalues --    1.93388   1.94334   1.94633   1.95704   1.96487
 Alpha virt. eigenvalues --    1.96954   1.98176   1.98339   1.99125   2.00073
 Alpha virt. eigenvalues --    2.01103   2.01414   2.01885   2.02871   2.04781
 Alpha virt. eigenvalues --    2.07067   2.07599   2.08224   2.09438   2.10330
 Alpha virt. eigenvalues --    2.10692   2.12140   2.12433   2.12840   2.14746
 Alpha virt. eigenvalues --    2.15348   2.16067   2.16677   2.18185   2.18416
 Alpha virt. eigenvalues --    2.20385   2.21900   2.22766   2.22909   2.24136
 Alpha virt. eigenvalues --    2.24803   2.25499   2.26650   2.27153   2.28020
 Alpha virt. eigenvalues --    2.29503   2.30568   2.30831   2.31773   2.34796
 Alpha virt. eigenvalues --    2.36873   2.37617   2.38601   2.39389   2.41029
 Alpha virt. eigenvalues --    2.42418   2.42643   2.44749   2.45119   2.46968
 Alpha virt. eigenvalues --    2.48876   2.49477   2.50900   2.52141   2.53264
 Alpha virt. eigenvalues --    2.54508   2.55190   2.55650   2.57503   2.57964
 Alpha virt. eigenvalues --    2.59378   2.60008   2.61898   2.62705   2.65084
 Alpha virt. eigenvalues --    2.67001   2.67618   2.68727   2.69700   2.71717
 Alpha virt. eigenvalues --    2.72895   2.74096   2.74917   2.75910   2.77478
 Alpha virt. eigenvalues --    2.79592   2.81923   2.83014   2.84031   2.85814
 Alpha virt. eigenvalues --    2.86075   2.86593   2.89680   2.90783   2.91790
 Alpha virt. eigenvalues --    2.96386   2.99967   3.01368   3.04582   3.12618
 Alpha virt. eigenvalues --    3.13050   3.16156   3.23962   3.27446   3.27515
 Alpha virt. eigenvalues --    3.34673   3.35146   3.36573   3.36977   3.41666
 Alpha virt. eigenvalues --    3.47530   3.49566   3.50501   3.52731   3.55874
 Alpha virt. eigenvalues --    3.58478   3.65042   3.73113   3.79451   3.85112
 Alpha virt. eigenvalues --    3.89195   4.05233   4.07931   4.11644   4.93504
          Condensed to atoms (all electrons):
               1          2          3          4          5          6
     1  C   13.382020  -2.391386  -1.924646  -0.476318  -0.810161   0.132968
     2  C   -2.391386  17.217244  -4.923975  -0.521383  -0.538976  -0.149325
     3  C   -1.924646  -4.923975  18.339137  -2.929698   1.329288  -0.693666
     4  C   -0.476318  -0.521383  -2.929698  10.117373  -1.664911   0.566353
     5  C   -0.810161  -0.538976   1.329288  -1.664911   8.542022  -0.016389
     6  N    0.132968  -0.149325  -0.693666   0.566353  -0.016389   7.534418
     7  C   -1.206588  -7.151053  -2.336258   1.073707  -1.051336   0.443137
     8  C   -0.461852   0.458708  -0.141656  -0.020106  -0.059774  -0.072248
     9  C    0.128923   0.334400  -0.012090  -0.037704   0.015309   0.015601
    10  C   -0.222752  -0.220163  -0.065488   0.038304  -0.050015   0.016737
    11  N   -0.256685   1.245453  -0.237396  -0.125980   0.098132   0.042028
    12  O   -0.058879  -0.039198  -0.005507   0.003811  -0.010179  -0.012535
    13  H   -0.008204   0.128505   0.004373   0.003879  -0.001543  -0.002815
    14  H    0.026778   0.000337   0.002754  -0.003875   0.002003  -0.000146
    15  H   -0.035908  -0.120388   0.008105  -0.000157  -0.002392   0.000616
    16  H   -0.015298   0.093742  -0.037960  -0.014946  -0.005469  -0.003353
    17  H    0.137542   0.250689  -0.000531  -0.007004   0.014099  -0.008333
    18  H   -0.003546  -0.117168   0.010766   0.002362  -0.001937   0.002375
    19  H   -0.012036   0.930460  -0.001938  -0.081329   0.040817  -0.004664
    20  H   -0.345998  -0.491328  -0.124312  -0.001257   0.031950  -0.296829
    21  H    0.050974  -0.043735   0.240411  -0.220394  -0.023526  -0.113745
    22  H    0.084219  -0.029106   0.509222  -0.902432   0.234479  -0.125353
    23  H    0.116361   0.633613  -1.973200   0.458772  -0.225967   0.031627
    24  C   -0.175762   0.354764  -0.053588   0.071833  -0.028322   0.024475
    25  H    0.007364  -0.175959  -0.072866  -0.016804   0.023753  -0.026533
    26  H   -0.011088  -0.009889   0.004766   0.001575  -0.003304  -0.000441
    27  H    0.004949   0.022076  -0.002973  -0.000965   0.001718   0.002801
    28  O    0.004496  -0.005338  -0.000666  -0.000211  -0.000103  -0.000894
    29  H   -0.003085   0.001300   0.000388   0.000064  -0.000388  -0.000181
    30  H    0.000799  -0.000313  -0.000157  -0.000034   0.000166   0.000119
    31  H   -0.054707   0.007074   0.059259  -0.026399   0.003544   0.003540
    32  H   -0.005911  -0.048215  -0.004024   0.008121  -0.001373   0.000221
    33  H    0.138410   0.188441  -0.059623   0.048708  -0.020073  -0.016652
    34  O   -0.000008   0.000791   0.000066  -0.000009  -0.000011  -0.000023
    35  H    0.000100  -0.000101   0.000033  -0.000008   0.000028   0.000034
    36  H    0.000014   0.000309  -0.000047   0.000007  -0.000009  -0.000004
               7          8          9         10         11         12
     1  C   -1.206588  -0.461852   0.128923  -0.222752  -0.256685  -0.058879
     2  C   -7.151053   0.458708   0.334400  -0.220163   1.245453  -0.039198
     3  C   -2.336258  -0.141656  -0.012090  -0.065488  -0.237396  -0.005507
     4  C    1.073707  -0.020106  -0.037704   0.038304  -0.125980   0.003811
     5  C   -1.051336  -0.059774   0.015309  -0.050015   0.098132  -0.010179
     6  N    0.443137  -0.072248   0.015601   0.016737   0.042028  -0.012535
     7  C   24.403104  -2.199956   0.328453  -0.583538  -4.013193   0.126951
     8  C   -2.199956   8.671148  -1.833818   0.954681  -0.498436   0.021204
     9  C    0.328453  -1.833818   8.157969  -0.832349  -1.029502   0.000371
    10  C   -0.583538   0.954681  -0.832349   5.940965   0.201518   0.004900
    11  N   -4.013193  -0.498436  -1.029502   0.201518  13.832677  -0.203995
    12  O    0.126951   0.021204   0.000371   0.004900  -0.203995   8.118158
    13  H    0.012438   0.070298  -0.055930  -0.253477  -0.013107  -0.005854
    14  H   -0.081147   0.290395  -0.369999   0.234336  -0.174793  -0.005494
    15  H    0.219488   0.364726  -0.738431   0.135050   0.202891   0.022142
    16  H   -0.494268  -0.116255   0.362448   0.042122  -0.258866  -0.013028
    17  H    0.232134  -0.981769   0.216201  -0.193820   0.325366   0.002984
    18  H    0.612639  -0.051475   0.318915  -0.351805  -1.159230   0.046922
    19  H   -3.200615   0.835737   0.000295   0.074354  -0.438660   0.002744
    20  H    0.553014   0.009835   0.015547  -0.016949  -0.259772  -0.009281
    21  H   -0.004664   0.002820   0.000469  -0.001084   0.002009   0.000094
    22  H   -0.033683   0.001428   0.000330  -0.000622  -0.000699   0.000106
    23  H    0.122200  -0.066697  -0.006427   0.008686   0.021842  -0.001398
    24  C   -0.832590  -0.052715  -0.265427   0.048868   1.261129  -0.006727
    25  H    0.185464  -0.086731   0.252771  -0.266388   0.028307  -0.051915
    26  H    0.045742  -0.014618   0.037066  -0.044383   0.006235   0.299561
    27  H   -0.050912   0.007007  -0.000560   0.020720   0.002700   0.341844
    28  O   -0.014269   0.038742  -0.105434   0.050661   0.019676  -0.078923
    29  H   -0.001557  -0.005555   0.006297   0.003067   0.006459   0.002537
    30  H    0.002318   0.002442  -0.000785  -0.004258   0.002337   0.002497
    31  H   -0.076473   0.062229  -0.003196   0.144862  -0.366886  -0.008247
    32  H    0.074278  -0.077783   0.075502   0.037022  -0.199731   0.016696
    33  H   -0.140543   0.087463  -0.062783  -0.092896   0.062604   0.007891
    34  O   -0.000014   0.000415   0.001735  -0.000273   0.001512   0.001856
    35  H    0.000166   0.000186  -0.000253   0.000069  -0.000066  -0.000101
    36  H   -0.000520   0.000080   0.000130  -0.000147   0.000198   0.000463
              13         14         15         16         17         18
     1  C   -0.008204   0.026778  -0.035908  -0.015298   0.137542  -0.003546
     2  C    0.128505   0.000337  -0.120388   0.093742   0.250689  -0.117168
     3  C    0.004373   0.002754   0.008105  -0.037960  -0.000531   0.010766
     4  C    0.003879  -0.003875  -0.000157  -0.014946  -0.007004   0.002362
     5  C   -0.001543   0.002003  -0.002392  -0.005469   0.014099  -0.001937
     6  N   -0.002815  -0.000146   0.000616  -0.003353  -0.008333   0.002375
     7  C    0.012438  -0.081147   0.219488  -0.494268   0.232134   0.612639
     8  C    0.070298   0.290395   0.364726  -0.116255  -0.981769  -0.051475
     9  C   -0.055930  -0.369999  -0.738431   0.362448   0.216201   0.318915
    10  C   -0.253477   0.234336   0.135050   0.042122  -0.193820  -0.351805
    11  N   -0.013107  -0.174793   0.202891  -0.258866   0.325366  -1.159230
    12  O   -0.005854  -0.005494   0.022142  -0.013028   0.002984   0.046922
    13  H    2.506047  -0.288930   0.207607  -0.058774   0.062875  -0.680973
    14  H   -0.288930   2.124620  -0.623537   0.206384  -0.306480   0.168128
    15  H    0.207607  -0.623537   2.371089  -0.439248   0.172791  -0.339384
    16  H   -0.058774   0.206384  -0.439248   2.466506  -0.686236   0.058916
    17  H    0.062875  -0.306480   0.172791  -0.686236   2.534094  -0.045111
    18  H   -0.680973   0.168128  -0.339384   0.058916  -0.045111   2.988274
    19  H   -0.167592   0.070034  -0.055140   0.299979  -0.344047   0.127630
    20  H    0.001156  -0.003731   0.012720  -0.092701   0.040080  -0.002286
    21  H   -0.000000   0.000070  -0.000026   0.000104   0.001062  -0.000039
    22  H   -0.000321  -0.000071   0.000053  -0.000856  -0.001604   0.000021
    23  H    0.002318   0.001680  -0.001688   0.001512   0.008331  -0.002622
    24  C    0.036886  -0.039596   0.035078  -0.087214   0.083058  -0.228799
    25  H   -0.040955   0.012485  -0.040800   0.070780  -0.015726   0.126512
    26  H    0.002061  -0.000627  -0.001460   0.005739  -0.000134   0.004780
    27  H    0.000397   0.000522  -0.002861   0.003661  -0.000481   0.000306
    28  O   -0.000387   0.002522  -0.011951   0.017129  -0.001979   0.005472
    29  H   -0.000890   0.003235  -0.000663   0.002050  -0.002588  -0.000280
    30  H    0.000305  -0.000925  -0.000086  -0.001447   0.000683  -0.001465
    31  H    0.017324   0.002202  -0.003277   0.002650   0.006128   0.031789
    32  H    0.016753  -0.004048   0.012728  -0.009253   0.002370  -0.016288
    33  H    0.006124  -0.000316  -0.005387   0.004380   0.002660   0.004032
    34  O   -0.000040  -0.000110   0.002905  -0.005140   0.000360  -0.000369
    35  H    0.000005   0.000032  -0.000652  -0.000507   0.000039   0.000025
    36  H    0.000009  -0.000120   0.000919  -0.000230   0.000082  -0.000071
              19         20         21         22         23         24
     1  C   -0.012036  -0.345998   0.050974   0.084219   0.116361  -0.175762
     2  C    0.930460  -0.491328  -0.043735  -0.029106   0.633613   0.354764
     3  C   -0.001938  -0.124312   0.240411   0.509222  -1.973200  -0.053588
     4  C   -0.081329  -0.001257  -0.220394  -0.902432   0.458772   0.071833
     5  C    0.040817   0.031950  -0.023526   0.234479  -0.225967  -0.028322
     6  N   -0.004664  -0.296829  -0.113745  -0.125353   0.031627   0.024475
     7  C   -3.200615   0.553014  -0.004664  -0.033683   0.122200  -0.832590
     8  C    0.835737   0.009835   0.002820   0.001428  -0.066697  -0.052715
     9  C    0.000295   0.015547   0.000469   0.000330  -0.006427  -0.265427
    10  C    0.074354  -0.016949  -0.001084  -0.000622   0.008686   0.048868
    11  N   -0.438660  -0.259772   0.002009  -0.000699   0.021842   1.261129
    12  O    0.002744  -0.009281   0.000094   0.000106  -0.001398  -0.006727
    13  H   -0.167592   0.001156  -0.000000  -0.000321   0.002318   0.036886
    14  H    0.070034  -0.003731   0.000070  -0.000071   0.001680  -0.039596
    15  H   -0.055140   0.012720  -0.000026   0.000053  -0.001688   0.035078
    16  H    0.299979  -0.092701   0.000104  -0.000856   0.001512  -0.087214
    17  H   -0.344047   0.040080   0.001062  -0.001604   0.008331   0.083058
    18  H    0.127630  -0.002286  -0.000039   0.000021  -0.002622  -0.228799
    19  H    4.139377  -0.012776   0.000831  -0.002975  -0.165554  -0.223381
    20  H   -0.012776   2.858427  -0.007016   0.005396  -0.008155  -0.048963
    21  H    0.000831  -0.007016   1.699058  -0.081578  -0.008152   0.000879
    22  H   -0.002975   0.005396  -0.081578   2.081167  -0.157852  -0.009797
    23  H   -0.165554  -0.008155  -0.008152  -0.157852   3.034982   0.062040
    24  C   -0.223381  -0.048963   0.000879  -0.009797   0.062040   4.854512
    25  H    0.016638   0.047140   0.000730   0.002275  -0.001430  -0.318320
    26  H    0.002495   0.002480   0.000055  -0.000068  -0.000246  -0.001225
    27  H   -0.001367  -0.006210  -0.000048   0.000068   0.000086  -0.000691
    28  O   -0.000113  -0.000184   0.000010  -0.000015   0.000008   0.003133
    29  H   -0.000254  -0.002459   0.000004   0.000001  -0.000028   0.000250
    30  H    0.000095   0.001186   0.000001  -0.000000   0.000011   0.000387
    31  H    0.053386  -0.013151   0.000305   0.000774  -0.003230   0.239528
    32  H   -0.007215   0.010705   0.000201  -0.001284   0.006011   0.197479
    33  H    0.029565   0.002523  -0.002391  -0.002789   0.001913   0.022819
    34  O   -0.000088  -0.001924   0.000002  -0.000001   0.000005   0.000158
    35  H   -0.000007   0.000274   0.000000  -0.000000   0.000002  -0.000003
    36  H   -0.000021  -0.000619   0.000000   0.000000  -0.000001   0.000048
              25         26         27         28         29         30
     1  C    0.007364  -0.011088   0.004949   0.004496  -0.003085   0.000799
     2  C   -0.175959  -0.009889   0.022076  -0.005338   0.001300  -0.000313
     3  C   -0.072866   0.004766  -0.002973  -0.000666   0.000388  -0.000157
     4  C   -0.016804   0.001575  -0.000965  -0.000211   0.000064  -0.000034
     5  C    0.023753  -0.003304   0.001718  -0.000103  -0.000388   0.000166
     6  N   -0.026533  -0.000441   0.002801  -0.000894  -0.000181   0.000119
     7  C    0.185464   0.045742  -0.050912  -0.014269  -0.001557   0.002318
     8  C   -0.086731  -0.014618   0.007007   0.038742  -0.005555   0.002442
     9  C    0.252771   0.037066  -0.000560  -0.105434   0.006297  -0.000785
    10  C   -0.266388  -0.044383   0.020720   0.050661   0.003067  -0.004258
    11  N    0.028307   0.006235   0.002700   0.019676   0.006459   0.002337
    12  O   -0.051915   0.299561   0.341844  -0.078923   0.002537   0.002497
    13  H   -0.040955   0.002061   0.000397  -0.000387  -0.000890   0.000305
    14  H    0.012485  -0.000627   0.000522   0.002522   0.003235  -0.000925
    15  H   -0.040800  -0.001460  -0.002861  -0.011951  -0.000663  -0.000086
    16  H    0.070780   0.005739   0.003661   0.017129   0.002050  -0.001447
    17  H   -0.015726  -0.000134  -0.000481  -0.001979  -0.002588   0.000683
    18  H    0.126512   0.004780   0.000306   0.005472  -0.000280  -0.001465
    19  H    0.016638   0.002495  -0.001367  -0.000113  -0.000254   0.000095
    20  H    0.047140   0.002480  -0.006210  -0.000184  -0.002459   0.001186
    21  H    0.000730   0.000055  -0.000048   0.000010   0.000004   0.000001
    22  H    0.002275  -0.000068   0.000068  -0.000015   0.000001  -0.000000
    23  H   -0.001430  -0.000246   0.000086   0.000008  -0.000028   0.000011
    24  C   -0.318320  -0.001225  -0.000691   0.003133   0.000250   0.000387
    25  H    1.168613   0.014590  -0.016037  -0.017015  -0.000810   0.001037
    26  H    0.014590   0.550797  -0.131901  -0.033016   0.001142  -0.002586
    27  H   -0.016037  -0.131901   0.581265   0.006139   0.000164  -0.000227
    28  O   -0.017015  -0.033016   0.006139   7.996857   0.309914   0.348001
    29  H   -0.000810   0.001142   0.000164   0.309914   0.513633  -0.113124
    30  H    0.001037  -0.002586  -0.000227   0.348001  -0.113124   0.570460
    31  H   -0.078073  -0.000267   0.001280   0.000029  -0.000003   0.000010
    32  H    0.016079   0.000550  -0.002904  -0.000109  -0.000276   0.000068
    33  H   -0.017895  -0.000830   0.002005   0.000292   0.000052  -0.000042
    34  O   -0.000471  -0.000057   0.000320  -0.046725  -0.007894   0.003832
    35  H   -0.000110   0.000840  -0.000087   0.002060  -0.003132  -0.000706
    36  H    0.000121  -0.000920   0.000166   0.002074  -0.000425  -0.000737
              31         32         33         34         35         36
     1  C   -0.054707  -0.005911   0.138410  -0.000008   0.000100   0.000014
     2  C    0.007074  -0.048215   0.188441   0.000791  -0.000101   0.000309
     3  C    0.059259  -0.004024  -0.059623   0.000066   0.000033  -0.000047
     4  C   -0.026399   0.008121   0.048708  -0.000009  -0.000008   0.000007
     5  C    0.003544  -0.001373  -0.020073  -0.000011   0.000028  -0.000009
     6  N    0.003540   0.000221  -0.016652  -0.000023   0.000034  -0.000004
     7  C   -0.076473   0.074278  -0.140543  -0.000014   0.000166  -0.000520
     8  C    0.062229  -0.077783   0.087463   0.000415   0.000186   0.000080
     9  C   -0.003196   0.075502  -0.062783   0.001735  -0.000253   0.000130
    10  C    0.144862   0.037022  -0.092896  -0.000273   0.000069  -0.000147
    11  N   -0.366886  -0.199731   0.062604   0.001512  -0.000066   0.000198
    12  O   -0.008247   0.016696   0.007891   0.001856  -0.000101   0.000463
    13  H    0.017324   0.016753   0.006124  -0.000040   0.000005   0.000009
    14  H    0.002202  -0.004048  -0.000316  -0.000110   0.000032  -0.000120
    15  H   -0.003277   0.012728  -0.005387   0.002905  -0.000652   0.000919
    16  H    0.002650  -0.009253   0.004380  -0.005140  -0.000507  -0.000230
    17  H    0.006128   0.002370   0.002660   0.000360   0.000039   0.000082
    18  H    0.031789  -0.016288   0.004032  -0.000369   0.000025  -0.000071
    19  H    0.053386  -0.007215   0.029565  -0.000088  -0.000007  -0.000021
    20  H   -0.013151   0.010705   0.002523  -0.001924   0.000274  -0.000619
    21  H    0.000305   0.000201  -0.002391   0.000002   0.000000   0.000000
    22  H    0.000774  -0.001284  -0.002789  -0.000001  -0.000000   0.000000
    23  H   -0.003230   0.006011   0.001913   0.000005   0.000002  -0.000001
    24  C    0.239528   0.197479   0.022819   0.000158  -0.000003   0.000048
    25  H   -0.078073   0.016079  -0.017895  -0.000471  -0.000110   0.000121
    26  H   -0.000267   0.000550  -0.000830  -0.000057   0.000840  -0.000920
    27  H    0.001280  -0.002904   0.002005   0.000320  -0.000087   0.000166
    28  O    0.000029  -0.000109   0.000292  -0.046725   0.002060   0.002074
    29  H   -0.000003  -0.000276   0.000052  -0.007894  -0.003132  -0.000425
    30  H    0.000010   0.000068  -0.000042   0.003832  -0.000706  -0.000737
    31  H    1.848379  -0.346427  -0.388447   0.000005   0.000001   0.000004
    32  H   -0.346427   1.956111  -0.594349   0.000026  -0.000001   0.000002
    33  H   -0.388447  -0.594349   1.897641   0.000015   0.000001   0.000000
    34  O    0.000005   0.000026   0.000015   7.730722   0.343806   0.343652
    35  H    0.000001  -0.000001   0.000001   0.343806   0.554139  -0.065275
    36  H    0.000004   0.000002   0.000000   0.343652  -0.065275   0.552386
 Mulliken charges:
               1
     1  C    0.264902
     2  C    1.109092
     3  C    1.093697
     4  C    0.657055
     5  C    0.178852
     6  N   -0.272920
     7  C    1.037942
     8  C    0.861898
     9  C    1.085954
    10  C    1.243482
    11  N   -1.126076
    12  O   -0.512472
    13  H   -0.499566
    14  H   -0.244576
    15  H   -0.345474
    16  H   -0.297052
    17  H   -0.497786
    18  H   -0.507014
    19  H   -0.904668
    20  H   -0.846531
    21  H   -0.493689
    22  H   -0.568433
    23  H   -0.889352
    24  C    1.075799
    25  H    0.270179
    26  H    0.276585
    27  H    0.218032
    28  O   -0.489885
    29  H    0.293035
    30  H    0.190136
    31  H   -0.115516
    32  H   -0.111730
    33  H   -0.102523
    34  O   -0.369028
    35  H    0.169166
    36  H    0.168486
 Sum of Mulliken charges =   1.00000
 Mulliken charges with hydrogens summed into heavy atoms:
               1
     1  C   -0.581629
     2  C    1.109092
     3  C    0.204344
     4  C    0.088622
     5  C   -0.314836
     6  N   -0.272920
     7  C    0.133274
     8  C    0.067059
     9  C    0.495904
    10  C    0.236902
    11  N   -0.855897
    12  O   -0.017854
    24  C    0.746029
    28  O   -0.006714
    34  O   -0.031377
 Electronic spatial extent (au):  <R**2>=           4690.6423
 Charge=              1.0000 electrons
 Dipole moment (field-independent basis, Debye):
    X=             -3.8125    Y=             -2.9193    Z=             -0.0403  Tot=              4.8020
 Quadrupole moment (field-independent basis, Debye-Ang):
   XX=            -28.4628   YY=            -63.1258   ZZ=            -78.3797
   XY=            -18.4554   XZ=              1.3729   YZ=             -3.0913
 Traceless Quadrupole moment (field-independent basis, Debye-Ang):
   XX=             28.1933   YY=             -6.4697   ZZ=            -21.7235
   XY=            -18.4554   XZ=              1.3729   YZ=             -3.0913
 Octapole moment (field-independent basis, Debye-Ang**2):
  XXX=           -200.8928  YYY=              6.0795  ZZZ=             18.4360  XYY=            -79.1944
  XXY=            121.8344  XXZ=            -26.0934  XZZ=            -42.3448  YZZ=             -2.9226
  YYZ=             -1.9861  XYZ=             14.1811
 Hexadecapole moment (field-independent basis, Debye-Ang**3):
 XXXX=          -1947.4363 YYYY=          -1374.0176 ZZZZ=           -521.5479 XXXY=           -495.6163
 XXXZ=            112.9045 YYYX=           -325.0238 YYYZ=            -46.3491 ZZZX=             10.4714
 ZZZY=             -4.3172 XXYY=           -372.6791 XXZZ=           -598.6546 YYZZ=           -336.7891
 XXYZ=           -111.3810 YYXZ=             58.8138 ZZXY=            -83.9044
 N-N= 1.063848247130D+03 E-N=-3.811491975835D+03  KE= 7.239836808036D+02
 Calling FoFJK, ICntrl=      2127 FMM=F ISym2X=0 I1Cent= 0 IOpClX= 0 NMat=1 NMatS=1 NMatT=0.
 ***** Axes restored to original set *****
 -------------------------------------------------------------------
 Center     Atomic                   Forces (Hartrees/Bohr)
 Number     Number              X              Y              Z
 -------------------------------------------------------------------
      1        6          -0.000385861    0.000196765   -0.000008562
      2        6           0.000113880   -0.000187005   -0.000004584
      3        6          -0.000146105    0.000062241   -0.000013045
      4        6           0.000107091    0.000161849    0.000026357
      5        6          -0.000045087   -0.000150882   -0.000023850
      6        7           0.000308891    0.000088947   -0.000026664
      7        6          -0.000220109   -0.000073701    0.000163416
      8        6          -0.000040987    0.000165668   -0.000019451
      9        6          -0.000238210    0.000260854    0.000009280
     10        6          -0.000105017    0.000045605   -0.000169394
     11        7           0.000267642   -0.000460713   -0.000102429
     12        8           0.002762730   -0.001112291    0.001763906
     13        1           0.000104238   -0.000084916    0.000038952
     14        1           0.000123718   -0.000175109    0.000008149
     15        1           0.000062735    0.000402851    0.000204099
     16        1          -0.000267238    0.000011583    0.000091315
     17        1           0.000063026   -0.000103152   -0.000014101
     18        1           0.000006837    0.000211714   -0.000083035
     19        1           0.000054360   -0.000026399    0.000020869
     20        1          -0.000075589   -0.000096612    0.000033405
     21        1           0.000042010   -0.000007647    0.000009718
     22        1           0.000019142   -0.000004770    0.000007980
     23        1          -0.000020925    0.000008746    0.000013313
     24        6          -0.000107254    0.000132274   -0.000222204
     25        1          -0.000634612    0.001044626    0.000249226
     26        1          -0.003900808    0.001099852   -0.003076527
     27        1          -0.000217092   -0.000295448   -0.000331097
     28        8           0.000459596   -0.012596523    0.010483828
     29        1          -0.000618264    0.010062650   -0.007053419
     30        1           0.002034234    0.000220290   -0.000566743
     31        1           0.000008952   -0.000030295    0.000000824
     32        1          -0.000000780    0.000038297   -0.000035411
     33        1          -0.000005611    0.000001566    0.000043317
     34        8          -0.000886527    0.020837189   -0.015833345
     35        1           0.003194260   -0.006648846    0.011214033
     36        1          -0.001817265   -0.012999257    0.003201875
 -------------------------------------------------------------------
 Cartesian Forces:  Max     0.020837189 RMS     0.003744454

 GradGradGradGradGradGradGradGradGradGradGradGradGradGradGradGradGradGrad
 Berny optimization.
 FormGI is forming the generalized inverse of G from B-inverse, IUseBI=4.
 Internal  Forces:  Max     0.014001038 RMS     0.001776569
 Search for a local minimum.
 Step number   1 out of a maximum of  206
 All quantities printed in internal units (Hartrees-Bohrs-Radians)
 Mixed Optimization -- RFO/linear search
 Second derivative matrix not updated -- first step.
 ITU=  0
     Eigenvalues ---    0.00230   0.00230   0.00230   0.00230   0.00230
     Eigenvalues ---    0.00230   0.00230   0.00232   0.00296   0.00312
     Eigenvalues ---    0.00448   0.00542   0.00666   0.00705   0.01538
     Eigenvalues ---    0.01556   0.02029   0.02143   0.02153   0.02174
     Eigenvalues ---    0.02192   0.02205   0.02252   0.02291   0.02474
     Eigenvalues ---    0.03715   0.03880   0.04036   0.04258   0.04535
     Eigenvalues ---    0.04925   0.05197   0.05505   0.05669   0.06078
     Eigenvalues ---    0.06085   0.06104   0.06442   0.06534   0.06583
     Eigenvalues ---    0.07103   0.07155   0.07174   0.07183   0.09109
     Eigenvalues ---    0.10059   0.11842   0.14091   0.14205   0.15913
     Eigenvalues ---    0.15999   0.16000   0.16000   0.16000   0.16000
     Eigenvalues ---    0.16000   0.16000   0.16000   0.16000   0.16000
     Eigenvalues ---    0.16000   0.17432   0.20122   0.22000   0.23197
     Eigenvalues ---    0.23446   0.24990   0.24999   0.26305   0.27154
     Eigenvalues ---    0.28810   0.29723   0.31574   0.31896   0.33772
     Eigenvalues ---    0.34086   0.34202   0.34210   0.34287   0.34347
     Eigenvalues ---    0.34351   0.34362   0.34371   0.34378   0.34517
     Eigenvalues ---    0.34660   0.34697   0.34852   0.34990   0.40738
     Eigenvalues ---    0.42304   0.44471   0.46154   0.46787   0.51859
     Eigenvalues ---    0.52378   0.52388   0.55053   0.55066   0.55481
     Eigenvalues ---    0.56178   0.57866
 RFO step:  Lambda=-3.41124836D-03 EMin= 2.30000000D-03
 Linear search not attempted -- first point.
 Maximum step size (   0.300) exceeded in Quadratic search.
    -- Step size scaled by   0.576
 Iteration  1 RMS(Cart)=  0.17334047 RMS(Int)=  0.00688724
 Iteration  2 RMS(Cart)=  0.03175838 RMS(Int)=  0.00036560
 Iteration  3 RMS(Cart)=  0.00036235 RMS(Int)=  0.00030697
 Iteration  4 RMS(Cart)=  0.00000073 RMS(Int)=  0.00030697
 Variable       Old X    -DE/DX   Delta X   Delta X   Delta X     New X
                                 (Linear)    (Quad)   (Total)
    R1        2.64355   0.00016   0.00000   0.00022   0.00022   2.64378
    R2        2.51621   0.00030   0.00000   0.00031   0.00031   2.51652
    R3        2.06467   0.00002   0.00000   0.00003   0.00003   2.06471
    R4        2.63748  -0.00011   0.00000  -0.00013  -0.00013   2.63734
    R5        2.84334  -0.00003   0.00000  -0.00006  -0.00006   2.84328
    R6        2.62705   0.00009   0.00000   0.00009   0.00009   2.62715
    R7        2.06231  -0.00001   0.00000  -0.00002  -0.00002   2.06229
    R8        2.63577  -0.00013   0.00000  -0.00018  -0.00017   2.63559
    R9        2.05692   0.00002   0.00000   0.00003   0.00003   2.05695
   R10        2.52501   0.00004   0.00000   0.00004   0.00004   2.52505
   R11        2.06170   0.00003   0.00000   0.00005   0.00005   2.06175
   R12        2.89773   0.00016   0.00000   0.00047   0.00047   2.89820
   R13        2.85923  -0.00032   0.00000  -0.00070  -0.00070   2.85853
   R14        2.07716   0.00004   0.00000   0.00006   0.00006   2.07722
   R15        2.92644  -0.00023   0.00000  -0.00032  -0.00032   2.92612
   R16        2.06991   0.00000   0.00000   0.00001   0.00001   2.06992
   R17        2.06708   0.00007   0.00000   0.00011   0.00011   2.06719
   R18        2.90182  -0.00014   0.00000  -0.00033  -0.00034   2.90149
   R19        2.06748   0.00007   0.00000   0.00012   0.00012   2.06760
   R20        2.06849   0.00027   0.00000   0.00045   0.00045   2.06894
   R21        2.82384  -0.00004   0.00000  -0.00020  -0.00020   2.82364
   R22        2.07184   0.00010   0.00000   0.00016   0.00016   2.07201
   R23        2.06724  -0.00001   0.00000  -0.00002  -0.00002   2.06722
   R24        2.79215  -0.00028   0.00000  -0.00045  -0.00045   2.79170
   R25        1.97261  -0.00044   0.00000  -0.00061  -0.00061   1.97201
[...]
   D61        2.31317   0.00006  -0.02678   0.00837  -0.01844   2.29473
   D62        0.13141   0.00003  -0.02566   0.00693  -0.01872   0.11269
   D63       -0.57428  -0.00057   0.02143  -0.02370  -0.00227  -0.57655
   D64       -2.78545   0.00024   0.02126  -0.03523  -0.01399  -2.79944
   D65        1.43630   0.00107   0.02184  -0.04678  -0.02498   1.41132
   D66        1.51651  -0.00071   0.02343  -0.02473  -0.00127   1.51524
   D67       -0.69466   0.00010   0.02326  -0.03626  -0.01299  -0.70765
   D68       -2.75610   0.00092   0.02383  -0.04781  -0.02398  -2.78008
   D69       -2.71336  -0.00066   0.02176  -0.02291  -0.00114  -2.71450
   D70        1.35866   0.00015   0.02159  -0.03445  -0.01286   1.34580
   D71       -0.70278   0.00097   0.02217  -0.04600  -0.02385  -0.72663
   D72       -1.02457   0.00095   0.00430   0.00073   0.00504  -1.01954
   D73       -3.11611   0.00096   0.00488  -0.00058   0.00430  -3.11181
   D74        1.07580   0.00099   0.00556   0.00148   0.00704   1.08285
   D75        1.09355   0.00029   0.00418   0.00634   0.01057   1.10413
   D76       -0.99798   0.00030   0.00475   0.00503   0.00984  -0.98814
   D77       -3.08926   0.00033   0.00544   0.00709   0.01258  -3.07667
   D78        3.13260  -0.00127   0.01097   0.00559   0.01650  -3.13409
   D79        1.04106  -0.00126   0.01155   0.00428   0.01577   1.05683
   D80       -1.05021  -0.00123   0.01223   0.00633   0.01851  -1.03170
   D81        2.02509   0.00037   0.07192   0.13123   0.20311   2.22820
   D82        0.06755   0.00052   0.06701   0.14665   0.21350   0.28106
   D83       -2.07231   0.00086   0.06900   0.14077   0.20962  -1.86269
   D84       -1.82696   0.00142  -0.00144  -0.08357  -0.08715  -1.91411
   D85        2.06630  -0.00180  -0.06661  -0.00650  -0.07130   1.99500
   D86       -1.57792  -0.00401  -0.03509  -0.11624  -0.15244  -1.73036
   D87        2.39266  -0.00249  -0.06760  -0.07010  -0.13862   2.25405
   D88        0.90447  -0.00084   0.00926  -0.17338  -0.16329   0.74118
   D89       -1.40812   0.00067  -0.02325  -0.12723  -0.14947  -1.55759
   D90       -2.47752   0.00059  -0.13081  -0.11349  -0.24255  -2.72008
   D91        1.20483   0.00022  -0.04688   0.04617  -0.00249   1.20233
   D92       -0.07837  -0.00065  -0.09441  -0.12060  -0.21343  -0.29180
   D93       -2.67921  -0.00103  -0.01049   0.03906   0.02663  -2.65258
         Item               Value     Threshold  Converged?
 Maximum Force            0.008628     0.000450     NO 
 RMS     Force            0.001231     0.000300     NO 
 Maximum Displacement     0.527960     0.001800     NO 
 RMS     Displacement     0.096960     0.001200     NO 
 Predicted change in Energy=-2.600622D-04
 GradGradGradGradGradGradGradGradGradGradGradGradGradGradGradGradGradGrad

                          Input orientation:                          
 ---------------------------------------------------------------------
 Center     Atomic      Atomic             Coordinates (Angstroms)
 Number     Number       Type             X           Y           Z
 ---------------------------------------------------------------------
      1          6           0        0.290793    1.334603   -0.774926
      2          6           0        0.688809   -0.003042   -0.710498
      3          6           0        2.057664   -0.268697   -0.726424
      4          6           0        2.954107    0.791591   -0.799239
      5          6           0        2.449950    2.087191   -0.848722
      6          7           0        1.142646    2.357649   -0.837978
      7          6           0       -0.320198   -1.123293   -0.627583
      8          6           0       -1.570127   -1.011645   -1.500166
      9          6           0       -2.588033   -1.976054   -0.855315
     10          6           0       -2.060858   -2.227673    0.570801
     11          7           0       -0.935052   -1.254357    0.747670
     12          8           0       -2.307053    0.975415    1.415522
     13          1           0       -1.648023   -3.235864    0.690062
     14          1           0       -2.643506   -2.922384   -1.402121
     15          1           0       -3.592037   -1.542152   -0.836085
     16          1           0       -1.946457    0.017449   -1.475675
     17          1           0       -1.342253   -1.257316   -2.540311
     18          1           0       -2.794217   -2.045670    1.361344
     19          1           0        0.185884   -2.083171   -0.812014
     20          1           0       -0.764290    1.604308   -0.789301
     21          1           0        3.123823    2.942203   -0.897272
     22          1           0        4.028136    0.621281   -0.821650
     23          1           0        2.426093   -1.294827   -0.691301
     24          6           0        0.004826   -1.599154    1.831132
     25          1           0       -1.393017   -0.337334    0.989267
     26          1           0       -2.559496    1.584401    0.675066
     27          1           0       -2.159398    1.541630    2.176644
     28          8           0       -2.756760    2.507944   -0.696488
     29          1           0       -2.144814    3.276695   -0.729018
     30          1           0       -3.611001    2.833077   -0.986101
     31          1           0        0.497031   -2.548156    1.592781
     32          1           0       -0.556299   -1.695570    2.765193
     33          1           0        0.748561   -0.803238    1.927867
     34          8           0       -0.784788    4.309613   -0.609255
     35          1           0       -0.689928    5.181292   -0.999902
     36          1           0        0.063147    3.846570   -0.749287
 ---------------------------------------------------------------------
                    Distance matrix (angstroms):
                    1          2          3          4          5
     1  C    0.000000
     2  C    1.397090   0.000000
     3  C    2.386369   1.394485   0.000000
     4  C    2.718215   2.402267   1.390367   0.000000
     5  C    2.287749   2.736749   2.391454   1.391115   0.000000
     6  N    1.332762   2.407298   2.783414   2.394875   1.335031
     7  C    2.536981   1.509945   2.528701   3.797014   4.246155
     8  C    3.081213   2.596854   3.783057   4.920534   5.117439
     9  C    4.388000   3.827720   4.951180   6.195024   6.472347
    10  C    4.475606   3.761832   4.741582   6.011891   6.401600
    11  N    3.244027   2.515744   3.478625   4.658797   5.017235
    12  O    3.416999   3.801648   5.018615   5.711283   5.384415
    13  H    5.176328   4.227706   4.954052   6.294284   6.891746
    14  H    5.208207   4.483885   5.440554   6.744653   7.165570
    15  H    4.832787   4.550855   5.792481   6.949800   7.048255
    16  H    2.689095   2.744184   4.083656   5.007234   4.899521
    17  H    3.535741   3.007762   3.978314   5.068339   5.331792
    18  H    5.050463   4.538318   5.572895   6.764717   7.033223
    19  H    3.419585   2.142470   2.608296   3.990925   4.745447
    20  H    1.089104   2.168244   3.387554   3.806190   3.250853
    21  H    3.259664   3.826048   3.387589   2.159524   1.089728
    22  H    3.805095   3.399005   2.164229   1.087679   2.154135
    23  H    3.388274   2.165002   1.090833   2.154899   3.385763
    24  C    3.934494   3.078196   3.539117   4.618741   5.171981
    25  H    2.956851   2.708312   3.854284   4.834326   4.901523
    26  H    3.207651   3.871854   5.168782   5.762112   5.260160
    27  H    3.841622   4.339803   5.430350   5.963754   5.540448
    28  O    3.266567   4.263472   5.557815   5.964094   5.225900
    29  H    3.115447   4.334332   5.498239   5.672712   4.747747
    30  H    4.184975   5.158284   6.467008   6.877734   6.108220
    31  H    4.552404   3.437946   3.606968   4.786740   5.591177
    32  H    4.736238   4.061450   4.589135   5.586957   6.033837
    33  H    3.476349   2.757690   3.007448   3.852923   4.354165
    34  O    3.167807   4.558588   5.390193   5.137305   3.931925
    35  H    3.976109   5.372335   6.109536   5.708654   4.410799
    36  H    2.522392   3.900317   4.573187   4.206310   2.966839
                    6          7          8          9         10
     6  N    0.000000
     7  C    3.781685   0.000000
     8  C    4.376045   1.528460   0.000000
     9  C    5.718326   2.433545   1.543389   0.000000
    10  C    5.768213   2.384466   2.451213   1.541115   0.000000
    11  N    4.458441   1.512133   2.348403   2.413039   1.498688
    12  O    4.346177   3.539272   3.604539   3.734544   3.321737
    13  H    6.435071   2.821749   3.122550   2.204299   1.095949
    14  H    6.521653   3.038815   2.193782   1.094356   2.171295
    15  H    6.133977   3.305125   2.193299   1.093922   2.189470
    16  H    3.927564   2.159924   1.096019   2.184151   3.040020
    17  H    4.705383   2.172805   1.092786   2.215347   3.337215
    18  H    6.302788   3.305659   3.279611   2.227316   1.093572
    19  H    4.542792   1.100681   2.169169   2.776322   2.642140
    20  H    2.050926   2.768245   2.828058   4.018630   4.267909
    21  H    2.066466   5.335004   6.166811   7.537659   7.467514
    22  H    3.367684   4.689265   5.870893   7.107811   6.865224
    23  H    3.874188   2.752380   4.087081   5.062849   4.753507
    24  C    4.906636   2.525345   3.731380   3.752596   2.500104
    25  H    4.126906   2.093533   2.585216   2.741523   2.048049
    26  H    4.073460   3.747394   3.528447   3.875528   3.845961
    27  H    4.545033   4.283476   4.515018   4.663755   4.098303
    28  O    3.904865   4.373496   3.800197   4.489981   4.951401
    29  H    3.415247   4.764389   4.394859   5.272927   5.656381
    30  H    4.779658   5.158564   4.383071   4.918466   5.517072
    31  H    5.512924   2.761904   4.024963   3.979711   2.773075
    32  H    5.683119   3.448794   4.437217   4.161093   2.713335
    33  H    4.218579   2.788370   4.143810   4.500496   3.429792
    34  O    2.752722   5.452765   5.452180   6.543840   6.764392
    35  H    3.370090   6.326382   6.275148   7.406167   7.696708
    36  H    1.841214   4.986112   5.180121   6.398668   6.568901
                   11         12         13         14         15
    11  N    0.000000
    12  O    2.701906   0.000000
    13  H    2.106660   4.323827   0.000000
    14  H    3.212901   4.821322   2.338052   0.000000
    15  H    3.106554   3.613732   2.996161   1.767809   0.000000
    16  H    2.753851   3.067042   3.919633   3.022234   2.355708
    17  H    3.313101   4.643763   3.800455   2.400247   2.836732
    18  H    2.111698   3.060591   1.783519   2.903115   2.391389
    19  H    2.091900   4.531181   2.635934   3.009643   3.816539
    20  H    3.250140   2.763488   5.137779   4.939428   4.230669
    21  H    6.065593   6.221872   7.966094   8.240773   8.075640
    22  H    5.532993   6.727925   7.027206   7.576630   7.921344
    23  H    3.656443   5.656445   4.719557   5.371690   6.024951
    24  C    1.475176   3.485100   2.590902   4.383894   4.478250
    25  H    1.053106   1.655435   2.925069   3.736969   3.101481
    26  H    3.271489   0.991396   4.905707   4.963151   3.622851
    27  H    3.370243   0.960057   5.029501   5.741893   4.542984
    28  O    4.422570   2.647918   6.011918   5.477153   4.137687
    29  H    4.916764   3.149803   6.683862   6.255424   5.032614
    30  H    5.183993   3.304388   6.595063   5.851021   4.377841
    31  H    2.106890   4.506646   2.426747   4.355739   4.861267
    32  H    2.099648   3.467119   2.805448   4.819545   4.712584
    33  H    2.104976   3.572518   3.632278   5.204394   5.198675
    34  O    5.729013   4.187349   7.705039   7.509011   6.494248
    35  H    6.673206   5.112609   8.638428   8.345526   7.324873
    36  H    5.408951   4.306714   7.427026   7.319215   6.512007
                   16         17         18         19         20
    16  H    0.000000
    17  H    1.767354   0.000000
    18  H    3.608854   4.237052   0.000000
    19  H    3.065930   2.450356   3.688617   0.000000
    20  H    2.094458   3.404258   4.697683   3.807998   0.000000
    21  H    5.881877   6.346760   8.062470   5.821782   4.113276
    22  H    6.040540   5.943399   7.643467   4.698623   4.892314
    23  H    4.632117   4.197699   5.659396   2.377940   4.311975
    24  C    4.166039   4.587045   2.873103   2.693191   4.209558
    25  H    2.551098   3.647857   2.240583   2.964033   2.707135
    26  H    2.730721   4.460458   3.701822   4.816596   2.316794
    27  H    3.963320   5.545403   3.733153   5.250867   3.278275
    28  O    2.732451   4.424669   4.997147   5.454433   2.189774
    29  H    3.349556   4.947943   5.754903   5.845272   2.169414
    30  H    3.307288   4.928905   5.475382   6.214188   3.106826
    31  H    4.687044   4.704431   3.337420   2.469020   4.950576
    32  H    4.780369   5.381279   2.664890   3.673892   4.854573
    33  H    4.418229   4.954019   3.796823   3.076001   3.932938
    34  O    4.530213   5.918652   6.950589   6.469235   2.711366
    35  H    5.335776   6.652373   7.888758   7.319479   3.583949
    36  H    4.385011   5.588611   6.880247   5.931343   2.390396
                   21         22         23         24         25
    21  H    0.000000
    22  H    2.492023   0.000000
    23  H    4.299031   2.501000   0.000000
    24  C    6.147865   5.306091   3.509675   0.000000
    25  H    5.892049   5.795452   4.280970   2.062739   0.000000
    26  H    6.051115   6.823830   5.917179   4.248206   2.269903
    27  H    6.270804   6.937030   6.107154   3.829852   2.351108
    28  O    5.900012   7.043435   6.428301   5.557290   3.577314
    29  H    5.281925   6.720500   6.464783   5.911786   4.071720
    30  H    6.736294   7.954590   7.319358   6.376181   4.344311
    31  H    6.576050   5.323862   3.241781   1.095300   2.970563
    32  H    6.961744   6.265005   4.582861   1.093905   2.387219
    33  H    5.258479   4.510511   3.148939   1.093609   2.384197
    34  O    4.150904   6.067383   6.459584   6.441467   4.951700
    35  H    4.423658   6.563962   7.193395   7.380507   5.908161
    36  H    3.194921   5.111640   5.658696   6.026431   4.758996
                   26         27         28         29         30
    26  H    0.000000
    27  H    1.554557   0.000000
    28  O    1.665235   3.089578   0.000000
    29  H    2.237694   3.384307   0.983114   0.000000
    30  H    2.329019   3.711866   0.958809   1.553252   0.000000
    31  H    5.221358   4.911604   6.433665   6.804335   7.244600
    32  H    4.374887   3.660025   5.873227   6.281426   6.626617
    33  H    4.267736   3.743865   5.489849   5.663613   6.381205
    34  O    3.496549   4.160831   2.672507   1.711997   3.210864
    35  H    4.386164   5.049448   3.392734   2.411962   3.747929
    36  H    3.744924   4.337457   3.121952   2.280408   3.818718
                   31         32         33         34         35
    31  H    0.000000
    32  H    1.791915   0.000000
    33  H    1.794516   1.788863   0.000000
    34  O    7.315805   6.892120   5.910109   0.000000
    35  H    8.238643   7.841239   6.815840   0.959910   0.000000
    36  H    6.823933   6.591707   5.409036   0.976222   1.552872
                   36
    36  H    0.000000
 Stoichiometry    C10H21N2O3(1+)
 Framework group  C1[X(C10H21N2O3)]
 Deg. of freedom   102
 Full point group                 C1      NOp   1
 Largest Abelian subgroup         C1      NOp   1
 Largest concise Abelian subgroup C1      NOp   1
                         Standard orientation:                         
 ---------------------------------------------------------------------
 Center     Atomic      Atomic             Coordinates (Angstroms)
 Number     Number       Type             X           Y           Z
 ---------------------------------------------------------------------
      1          6           0        1.239303   -0.165501   -0.285519
      2          6           0        0.291182   -1.185941   -0.393368
      3          6           0        0.744013   -2.499896   -0.279115
      4          6           0        2.096875   -2.735105   -0.061024
      5          6           0        2.954089   -1.644245    0.041006
      6          7           0        2.536703   -0.380980   -0.069706
      7          6           0       -1.169895   -0.884007   -0.625797
      8          6           0       -1.510435    0.226385   -1.619402
      9          6           0       -2.960468    0.629646   -1.277594
     10          6           0       -3.208761    0.084764    0.142437
     11          7           0       -1.868153   -0.385657    0.619446
     12          8           0       -0.797090    1.945436    1.467458
     13          1           0       -3.882428   -0.779686    0.144625
     14          1           0       -3.674592    0.182640   -1.976040
     15          1           0       -3.092079    1.714997   -1.314445
     16          1           0       -0.830878    1.073733   -1.472906
     17          1           0       -1.390593   -0.121460   -2.648394
     18          1           0       -3.579692    0.829060    0.852602
     19          1           0       -1.693936   -1.812049   -0.900785
     20          1           0        0.950689    0.879565   -0.388897
     21          1           0        4.018789   -1.791450    0.220594
     22          1           0        2.486459   -3.746950    0.025234
     23          1           0        0.050730   -3.337397   -0.367822
     24          6           0       -1.921046   -1.342060    1.741337
     25          1           0       -1.368477    0.480665    0.949358
     26          1           0       -0.253327    2.452984    0.812032
     27          1           0       -0.403267    2.125543    2.324297
     28          8           0        0.714160    3.056490   -0.401540
     29          1           0        1.672124    2.919206   -0.228423
     30          1           0        0.628281    3.949670   -0.739428
     31          1           0       -2.431565   -2.254023    1.413653
     32          1           0       -2.472230   -0.883768    2.567649
     33          1           0       -0.901973   -1.575683    2.062103
     34          8           0        3.190284    2.275913    0.232338
     35          1           0        4.054743    2.626882    0.006600
     36          1           0        3.245407    1.307022    0.126406
 ---------------------------------------------------------------------
 Rotational constants (GHZ):           0.6202523           0.4499975           0.3190338
 Standard basis: Aug-CC-pVDZ (5D, 7F)
 There are   564 symmetry adapted cartesian basis functions of A   symmetry.
 There are   534 symmetry adapted basis functions of A   symmetry.
   534 basis functions,   876 primitive gaussians,   564 cartesian basis functions
    59 alpha electrons       59 beta electrons
       nuclear repulsion energy      1113.7778766313 Hartrees.
 NAtoms=   36 NActive=   36 NUniq=   36 SFac= 1.00D+00 NAtFMM=   60 NAOKFM=F Big=F
 Integral buffers will be    131072 words long.
 Raffenetti 2 integral format.
 Two-electron integral symmetry is turned on.
 Nuclear repulsion after empirical dispersion term =     1113.7482755052 Hartrees.
 One-electron integrals computed using PRISM.
 NBasis=   534 RedAO= T EigKep=  1.83D-06  NBF=   534
 NBsUse=   534 1.00D-06 EigRej= -1.00D+00 NBFU=   534
 Lowest energy guess from the checkpoint file:  "/gscratch/scrubbed/gds001/Gau-130927.chk"
 B after Tr=     0.000000   -0.000000    0.000000
         Rot=    0.999949   -0.009386    0.000412   -0.003615 Ang=  -1.15 deg.
 B after Tr=    -0.000000    0.000000   -0.000000
         Rot=    0.999285   -0.011897   -0.002623    0.035803 Ang=  -4.33 deg.
 Requested convergence on RMS density matrix=1.00D-08 within 128 cycles.
 Requested convergence on MAX density matrix=1.00D-06.
 Requested convergence on             energy=1.00D-06.
 No special actions if energy rises.
