 Entering Gaussian System, Link 0=g16
 Input=NicPySa3h2wB97XDaVDZ180K.gjf
 Output=NicPySa3h2wB97XDaVDZ180K.log
 Initial command:
 /sw/contrib/gaussian/g16/A03/g16/l1.exe "/gscratch/scrubbed/gds001/Gau-19577.inp" -scrdir="/gscratch/scrubbed/gds001/"
 Entering Link 1 = /sw/contrib/gaussian/g16/A03/g16/l1.exe PID=     19578.
  
 Copyright (c) 1988,1990,1992,1993,1995,1998,2003,2009,2016,
            Gaussian, Inc.  All Rights Reserved.
  
 This is part of the Gaussian(R) 16 program.  It is based on
 the Gaussian(R) 09 system (copyright 2009, Gaussian, Inc.),
 the Gaussian(R) 03 system (copyright 2003, Gaussian, Inc.),
 the Gaussian(R) 98 system (copyright 1998, Gaussian, Inc.),
 the Gaussian(R) 94 system (copyright 1995, Gaussian, Inc.),
 the Gaussian 92(TM) system (copyright 1992, Gaussian, Inc.),
 the Gaussian 90(TM) system (copyright 1990, Gaussian, Inc.),
 the Gaussian 88(TM) system (copyright 1988, Gaussian, Inc.),
 the Gaussian 86(TM) system (copyright 1986, Carnegie Mellon
 University), and the Gaussian 82(TM) system (copyright 1983,
 Carnegie Mellon University). Gaussian is a federally registered
 trademark of Gaussian, Inc.
  
 This software contains proprietary and confidential information,
 including trade secrets, belonging to Gaussian, Inc.
  
 This software is provided under written license and may be
 used, copied, transmitted, or stored only in accord with that
 written license.
  
 The following legend is applicable only to US Government
 contracts under FAR:
  
                    RESTRICTED RIGHTS LEGEND
  
 Use, reproduction and disclosure by the US Government is
 subject to restrictions as set forth in subparagraphs (a)
 and (c) of the Commercial Computer Software - Restricted
 Rights clause in FAR 52.227-19.
  
 Gaussian, Inc.
 340 Quinnipiac St., Bldg. 40, Wallingford CT 06492
  
  
 ---------------------------------------------------------------
 Warning -- This program may not be used in any manner that
 competes with the business of Gaussian, Inc. or will provide
 assistance to any competitor of Gaussian, Inc.  The licensee
 of this program is prohibited from giving any competitor of
 Gaussian, Inc. access to this program.  By using this program,
 the user acknowledges that Gaussian, Inc. is engaged in the
 business of creating and licensing software in the field of
 computational chemistry and represents and warrants to the
 licensee that it is not a competitor of Gaussian, Inc. and that
 it will not use this program in any manner prohibited above.
 ---------------------------------------------------------------
  

 Cite this work as:
 Gaussian 16, Revision A.03,
 M. J. Frisch, G. W. Trucks, H. B. Schlegel, G. E. Scuseria, 
 M. A. Robb, J. R. Cheeseman, G. Scalmani, V. Barone, 
 G. A. Petersson, H. Nakatsuji, X. Li, M. Caricato, A. V. Marenich, 
 J. Bloino, B. G. Janesko, R. Gomperts, B. Mennucci, H. P. Hratchian, 
 J. V. Ortiz, A. F. Izmaylov, J. L. Sonnenberg, D. Williams-Young, 
 F. Ding, F. Lipparini, F. Egidi, J. Goings, B. Peng, A. Petrone, 
 T. Henderson, D. Ranasinghe, V. G. Zakrzewski, J. Gao, N. Rega, 
 G. Zheng, W. Liang, M. Hada, M. Ehara, K. Toyota, R. Fukuda, 
 J. Hasegawa, M. Ishida, T. Nakajima, Y. Honda, O. Kitao, H. Nakai, 
 T. Vreven, K. Throssell, J. A. Montgomery, Jr., J. E. Peralta, 
 F. Ogliaro, M. J. Bearpark, J. J. Heyd, E. N. Brothers, K. N. Kudin, 
 V. N. Staroverov, T. A. Keith, R. Kobayashi, J. Normand, 
 K. Raghavachari, A. P. Rendell, J. C. Burant, S. S. Iyengar, 
 J. Tomasi, M. Cossi, J. M. Millam, M. Klene, C. Adamo, R. Cammi, 
 J. W. Ochterski, R. L. Martin, K. Morokuma, O. Farkas, 
 J. B. Foresman, and D. J. Fox, Gaussian, Inc., Wallingford CT, 2016.
 
 ******************************************
 Gaussian 16:  ES64L-G16RevA.03 25-Dec-2016
                15-Nov-2021 
 ******************************************
 %nprocshared=28
 Will use up to   28 processors via shared memory.
 %mem=41GB
 ---------------------------------------------
 # wB97XD/aug-cc-pVDZ opt freq temperature=180
 ---------------------------------------------
 1/18=20,19=15,26=3,38=1,112=180000/1,3;
 2/9=110,12=2,17=6,18=5,40=1/2;
 3/5=16,7=10,11=2,25=1,30=1,71=1,74=-58/1,2,3;
 4//1;
 5/5=2,38=5/2;
 6/7=2,8=2,9=2,10=2,28=1/1;
 7//1,2,3,16;
 1/18=20,19=15,26=3/3(2);
 2/9=110/2;
 99//99;
 2/9=110/2;
 3/5=16,7=10,11=2,25=1,30=1,71=1,74=-58/1,2,3;
 4/5=5,16=3,69=1/1;
 5/5=2,38=5/2;
 7//1,2,3,16;
 1/18=20,19=15,26=3/3(-5);
 2/9=110/2;
 6/7=2,8=2,9=2,10=2,19=2,28=1/1;
 99/9=1/99;
 --------
 Nicotine
 --------
 Symbolic Z-matrix:
 Charge =  1 Multiplicity = 1
 C                    -1.70097   2.17156  -0.78252 
 C                    -1.48166   0.86024  -0.34796 
 C                    -0.23833   0.56763   0.19381 
 N                     0.70366   1.51778   0.29838 
 C                     0.50878   2.78162  -0.10565 
 C                    -0.70699   3.14048  -0.66 
 C                    -2.56287  -0.19792  -0.424 
 N                    -2.00306  -1.54044  -0.32912 
 C                    -2.97199  -2.37115   0.38116 
 C                    -3.47328  -1.44038   1.47627 
 C                    -3.58765  -0.09275   0.7449 
 O                     3.09669   0.96608   1.2979 
 O                     5.07863   0.09984  -0.23085 
 H                    -2.48593  -3.27791   0.76127 
 H                    -4.42628  -1.7629    1.90812 
 H                    -2.73292  -1.38394   2.2843 
 H                    -4.59454   0.03901   0.3326 
 H                    -3.38718   0.76248   1.4002 
 H                    -3.80603  -2.68101  -0.28006 
 H                    -3.09344  -0.05168  -1.38496 
 H                     0.0117   -0.43206   0.54117 
 H                     1.34219   3.46715   0.02619 
 H                    -0.86789   4.16286  -0.99371 
 H                    -2.66244   2.43742  -1.22368 
 C                    -1.55446  -2.08504  -1.59667 
 H                     1.63955   1.2648    0.7115 
 H                     3.85639   0.63154   0.76268 
 H                     3.3641    0.94472   2.21862 
 H                     5.80382   0.66978  -0.4956 
 H                     5.43544  -0.80844  -0.21746 
 O                     6.04583  -2.4773   -0.19913 
 H                     6.15102  -3.00924  -0.99237 
 H                     6.67171  -2.83      0.43894 
 H                    -0.78441  -1.43752  -2.03821 
 H                    -2.38048  -2.18589  -2.32748 
 H                    -1.1113   -3.0751   -1.43633 
 
 Add virtual bond connecting atoms H26        and O12        Dist= 3.02D+00.
 Add virtual bond connecting atoms H27        and O13        Dist= 3.14D+00.
 Add virtual bond connecting atoms O31        and H30        Dist= 3.36D+00.

 GradGradGradGradGradGradGradGradGradGradGradGradGradGradGradGradGradGrad
 Berny optimization.
 Initialization pass.
                           ----------------------------
                           !    Initial Parameters    !
                           ! (Angstroms and Degrees)  !
 --------------------------                            --------------------------
 ! Name  Definition              Value          Derivative Info.                !
 --------------------------------------------------------------------------------
 ! R1    R(1,2)                  1.3987         estimate D2E/DX2                !
 ! R2    R(1,6)                  1.3935         estimate D2E/DX2                !
 ! R3    R(1,24)                 1.0907         estimate D2E/DX2                !
 ! R4    R(2,3)                  1.3874         estimate D2E/DX2                !
 ! R5    R(2,7)                  1.5148         estimate D2E/DX2                !
 ! R6    R(3,4)                  1.342          estimate D2E/DX2                !
 ! R7    R(3,21)                 1.0874         estimate D2E/DX2                !
 ! R8    R(4,5)                  1.3411         estimate D2E/DX2                !
 ! R9    R(4,26)                 1.0538         estimate D2E/DX2                !
 ! R10   R(5,6)                  1.3835         estimate D2E/DX2                !
 ! R11   R(5,22)                 1.0872         estimate D2E/DX2                !
 ! R12   R(6,23)                 1.0874         estimate D2E/DX2                !
 ! R13   R(7,8)                  1.4577         estimate D2E/DX2                !
 ! R14   R(7,11)                 1.5581         estimate D2E/DX2                !
 ! R15   R(7,20)                 1.1074         estimate D2E/DX2                !
 ! R16   R(8,9)                  1.4606         estimate D2E/DX2                !
 ! R17   R(8,25)                 1.4507         estimate D2E/DX2                !
 ! R18   R(9,10)                 1.5221         estimate D2E/DX2                !
 ! R19   R(9,14)                 1.0968         estimate D2E/DX2                !
 ! R20   R(9,19)                 1.1085         estimate D2E/DX2                !
 ! R21   R(10,11)                1.5376         estimate D2E/DX2                !
 ! R22   R(10,15)                1.0949         estimate D2E/DX2                !
 ! R23   R(10,16)                1.0974         estimate D2E/DX2                !
 ! R24   R(11,17)                1.096          estimate D2E/DX2                !
 ! R25   R(11,18)                1.0959         estimate D2E/DX2                !
 ! R26   R(12,26)                1.5989         estimate D2E/DX2                !
 ! R27   R(12,27)                0.9877         estimate D2E/DX2                !
 ! R28   R(12,28)                0.959          estimate D2E/DX2                !
 ! R29   R(13,27)                1.6624         estimate D2E/DX2                !
 ! R30   R(13,29)                0.9596         estimate D2E/DX2                !
 ! R31   R(13,30)                0.9759         estimate D2E/DX2                !
 ! R32   R(25,34)                1.0987         estimate D2E/DX2                !
 ! R33   R(25,35)                1.1075         estimate D2E/DX2                !
 ! R34   R(25,36)                1.0965         estimate D2E/DX2                !
 ! R35   R(30,31)                1.7771         estimate D2E/DX2                !
 ! R36   R(31,32)                0.9609         estimate D2E/DX2                !
 ! R37   R(31,33)                0.9609         estimate D2E/DX2                !
 ! A1    A(2,1,6)              120.8443         estimate D2E/DX2                !
 ! A2    A(2,1,24)             119.4964         estimate D2E/DX2                !
 ! A3    A(6,1,24)             119.6593         estimate D2E/DX2                !
 ! A4    A(1,2,3)              117.357          estimate D2E/DX2                !
 ! A5    A(1,2,7)              121.8295         estimate D2E/DX2                !
 ! A6    A(3,2,7)              120.7916         estimate D2E/DX2                !
 ! A7    A(2,3,4)              120.6711         estimate D2E/DX2                !
 ! A8    A(2,3,21)             121.6447         estimate D2E/DX2                !
 ! A9    A(4,3,21)             117.683          estimate D2E/DX2                !
 ! A10   A(3,4,5)              122.8025         estimate D2E/DX2                !
 ! A11   A(3,4,26)             118.9429         estimate D2E/DX2                !
 ! A12   A(5,4,26)             118.2543         estimate D2E/DX2                !
 ! A13   A(4,5,6)              119.5273         estimate D2E/DX2                !
 ! A14   A(4,5,22)             116.5079         estimate D2E/DX2                !
 ! A15   A(6,5,22)             123.9642         estimate D2E/DX2                !
 ! A16   A(1,6,5)              118.7956         estimate D2E/DX2                !
 ! A17   A(1,6,23)             121.4131         estimate D2E/DX2                !
 ! A18   A(5,6,23)             119.7907         estimate D2E/DX2                !
 ! A19   A(2,7,8)              111.4687         estimate D2E/DX2                !
 ! A20   A(2,7,11)             112.6227         estimate D2E/DX2                !
 ! A21   A(2,7,20)             107.0552         estimate D2E/DX2                !
 ! A22   A(8,7,11)             105.4225         estimate D2E/DX2                !
 ! A23   A(8,7,20)             111.2299         estimate D2E/DX2                !
 ! A24   A(11,7,20)            109.0858         estimate D2E/DX2                !
 ! A25   A(7,8,9)              107.4996         estimate D2E/DX2                !
 ! A26   A(7,8,25)             114.0567         estimate D2E/DX2                !
 ! A27   A(9,8,25)             114.6153         estimate D2E/DX2                !
 ! A28   A(8,9,10)             102.7416         estimate D2E/DX2                !
 ! A29   A(8,9,14)             110.1661         estimate D2E/DX2                !
 ! A30   A(8,9,19)             111.5934         estimate D2E/DX2                !
 ! A31   A(10,9,14)            113.7129         estimate D2E/DX2                !
 ! A32   A(10,9,19)            110.6274         estimate D2E/DX2                !
 ! A33   A(14,9,19)            108.0026         estimate D2E/DX2                !
 ! A34   A(9,10,11)            102.6053         estimate D2E/DX2                !
 ! A35   A(9,10,15)            112.9737         estimate D2E/DX2                !
 ! A36   A(9,10,16)            109.8171         estimate D2E/DX2                !
 ! A37   A(11,10,15)           112.3996         estimate D2E/DX2                !
 ! A38   A(11,10,16)           110.8149         estimate D2E/DX2                !
 ! A39   A(15,10,16)           108.1776         estimate D2E/DX2                !
 ! A40   A(7,11,10)            104.405          estimate D2E/DX2                !
 ! A41   A(7,11,17)            109.2775         estimate D2E/DX2                !
 ! A42   A(7,11,18)            112.3929         estimate D2E/DX2                !
 ! A43   A(10,11,17)           110.6496         estimate D2E/DX2                !
 ! A44   A(10,11,18)           112.7035         estimate D2E/DX2                !
 ! A45   A(17,11,18)           107.4078         estimate D2E/DX2                !
 ! A46   A(26,12,27)           124.4389         estimate D2E/DX2                !
 ! A47   A(26,12,28)           127.6188         estimate D2E/DX2                !
 ! A48   A(27,12,28)           107.3524         estimate D2E/DX2                !
 ! A49   A(27,13,29)           122.042          estimate D2E/DX2                !
 ! A50   A(27,13,30)           123.9358         estimate D2E/DX2                !
 ! A51   A(29,13,30)           106.2748         estimate D2E/DX2                !
 ! A52   A(8,25,34)            110.2806         estimate D2E/DX2                !
 ! A53   A(8,25,35)            112.3406         estimate D2E/DX2                !
 ! A54   A(8,25,36)            109.6439         estimate D2E/DX2                !
 ! A55   A(34,25,35)           108.1317         estimate D2E/DX2                !
 ! A56   A(34,25,36)           107.917          estimate D2E/DX2                !
 ! A57   A(35,25,36)           108.4036         estimate D2E/DX2                !
 ! A58   A(30,31,32)           123.2972         estimate D2E/DX2                !
 ! A59   A(30,31,33)           125.1205         estimate D2E/DX2                !
 ! A60   A(32,31,33)           105.884          estimate D2E/DX2                !
 ! A61   L(4,26,12,36,-1)      182.7363         estimate D2E/DX2                !
 ! A62   L(12,27,13,25,-1)     177.5734         estimate D2E/DX2                !
 ! A63   L(13,30,31,8,-1)      178.6409         estimate D2E/DX2                !
 ! A64   L(4,26,12,36,-2)      177.3651         estimate D2E/DX2                !
 ! A65   L(12,27,13,25,-2)     176.826          estimate D2E/DX2                !
 ! A66   L(13,30,31,8,-2)      179.8154         estimate D2E/DX2                !
 ! D1    D(6,1,2,3)             -0.5708         estimate D2E/DX2                !
 ! D2    D(6,1,2,7)            177.7364         estimate D2E/DX2                !
 ! D3    D(24,1,2,3)           179.3662         estimate D2E/DX2                !
 ! D4    D(24,1,2,7)            -2.3266         estimate D2E/DX2                !
 ! D5    D(2,1,6,5)              0.3465         estimate D2E/DX2                !
 ! D6    D(2,1,6,23)          -179.931          estimate D2E/DX2                !
 ! D7    D(24,1,6,5)          -179.5904         estimate D2E/DX2                !
 ! D8    D(24,1,6,23)            0.1321         estimate D2E/DX2                !
 ! D9    D(1,2,3,4)              0.4273         estimate D2E/DX2                !
 ! D10   D(1,2,3,21)          -179.1687         estimate D2E/DX2                !
 ! D11   D(7,2,3,4)           -177.8985         estimate D2E/DX2                !
 ! D12   D(7,2,3,21)             2.5055         estimate D2E/DX2                !
 ! D13   D(1,2,7,8)            161.7404         estimate D2E/DX2                !
 ! D14   D(1,2,7,11)           -79.9998         estimate D2E/DX2                !
 ! D15   D(1,2,7,20)            39.893          estimate D2E/DX2                !
 ! D16   D(3,2,7,8)            -20.0098         estimate D2E/DX2                !
 ! D17   D(3,2,7,11)            98.25           estimate D2E/DX2                !
 ! D18   D(3,2,7,20)          -141.8572         estimate D2E/DX2                !
 ! D19   D(2,3,4,5)             -0.0548         estimate D2E/DX2                !
 ! D20   D(2,3,4,26)          -179.8177         estimate D2E/DX2                !
 ! D21   D(21,3,4,5)           179.5568         estimate D2E/DX2                !
 ! D22   D(21,3,4,26)           -0.2061         estimate D2E/DX2                !
 ! D23   D(3,4,5,6)             -0.187          estimate D2E/DX2                !
 ! D24   D(3,4,5,22)          -179.9312         estimate D2E/DX2                !
 ! D25   D(26,4,5,6)           179.5774         estimate D2E/DX2                !
 ! D26   D(26,4,5,22)           -0.1668         estimate D2E/DX2                !
 ! D27   D(3,4,12,27)           87.4915         estimate D2E/DX2                !
 ! D28   D(3,4,12,28)          -84.5494         estimate D2E/DX2                !
 ! D29   D(5,4,12,27)          -91.5932         estimate D2E/DX2                !
 ! D30   D(5,4,12,28)           96.3659         estimate D2E/DX2                !
 ! D31   D(4,5,6,1)              0.038          estimate D2E/DX2                !
 ! D32   D(4,5,6,23)          -179.6891         estimate D2E/DX2                !
 ! D33   D(22,5,6,1)           179.762          estimate D2E/DX2                !
 ! D34   D(22,5,6,23)            0.0349         estimate D2E/DX2                !
 ! D35   D(2,7,8,9)            146.0612         estimate D2E/DX2                !
 ! D36   D(2,7,8,25)           -85.6935         estimate D2E/DX2                !
 ! D37   D(11,7,8,9)            23.5631         estimate D2E/DX2                !
 ! D38   D(11,7,8,25)          151.8084         estimate D2E/DX2                !
 ! D39   D(20,7,8,9)           -94.5401         estimate D2E/DX2                !
 ! D40   D(20,7,8,25)           33.7052         estimate D2E/DX2                !
 ! D41   D(2,7,11,10)         -119.4533         estimate D2E/DX2                !
 ! D42   D(2,7,11,17)          122.1509         estimate D2E/DX2                !
 ! D43   D(2,7,11,18)            3.014          estimate D2E/DX2                !
 ! D44   D(8,7,11,10)            2.3006         estimate D2E/DX2                !
 ! D45   D(8,7,11,17)         -116.0952         estimate D2E/DX2                !
 ! D46   D(8,7,11,18)          124.7679         estimate D2E/DX2                !
 ! D47   D(20,7,11,10)         121.8346         estimate D2E/DX2                !
 ! D48   D(20,7,11,17)           3.4387         estimate D2E/DX2                !
 ! D49   D(20,7,11,18)        -115.6982         estimate D2E/DX2                !
 ! D50   D(7,8,9,10)           -40.3281         estimate D2E/DX2                !
 ! D51   D(7,8,9,14)          -161.8133         estimate D2E/DX2                !
 ! D52   D(7,8,9,19)            78.2229         estimate D2E/DX2                !
 ! D53   D(25,8,9,10)         -168.251          estimate D2E/DX2                !
 ! D54   D(25,8,9,14)           70.2638         estimate D2E/DX2                !
 ! D55   D(25,8,9,19)          -49.6999         estimate D2E/DX2                !
 ! D56   D(7,8,25,34)           59.0052         estimate D2E/DX2                !
 ! D57   D(7,8,25,35)          -61.6955         estimate D2E/DX2                !
 ! D58   D(7,8,25,36)          177.6998         estimate D2E/DX2                !
 ! D59   D(9,8,25,34)         -176.4711         estimate D2E/DX2                !
 ! D60   D(9,8,25,35)           62.8282         estimate D2E/DX2                !
 ! D61   D(9,8,25,36)          -57.7765         estimate D2E/DX2                !
 ! D62   D(8,9,10,11)           40.0551         estimate D2E/DX2                !
 ! D63   D(8,9,10,15)          161.3146         estimate D2E/DX2                !
 ! D64   D(8,9,10,16)          -77.8257         estimate D2E/DX2                !
 ! D65   D(14,9,10,11)         159.0911         estimate D2E/DX2                !
 ! D66   D(14,9,10,15)         -79.6493         estimate D2E/DX2                !
 ! D67   D(14,9,10,16)          41.2104         estimate D2E/DX2                !
 ! D68   D(19,9,10,11)         -79.1719         estimate D2E/DX2                !
 ! D69   D(19,9,10,15)          42.0876         estimate D2E/DX2                !
 ! D70   D(19,9,10,16)         162.9473         estimate D2E/DX2                !
 ! D71   D(9,10,11,7)          -25.6693         estimate D2E/DX2                !
 ! D72   D(9,10,11,17)          91.7862         estimate D2E/DX2                !
 ! D73   D(9,10,11,18)        -147.9331         estimate D2E/DX2                !
 ! D74   D(15,10,11,7)        -147.3211         estimate D2E/DX2                !
 ! D75   D(15,10,11,17)        -29.8656         estimate D2E/DX2                !
 ! D76   D(15,10,11,18)         90.4151         estimate D2E/DX2                !
 ! D77   D(16,10,11,7)          91.5026         estimate D2E/DX2                !
 ! D78   D(16,10,11,17)       -151.0419         estimate D2E/DX2                !
 ! D79   D(16,10,11,18)        -30.7612         estimate D2E/DX2                !
 ! D80   D(26,12,13,29)        105.7311         estimate D2E/DX2                !
 ! D81   D(26,12,13,30)       -107.4929         estimate D2E/DX2                !
 ! D82   D(28,12,13,29)        -81.9275         estimate D2E/DX2                !
 ! D83   D(28,12,13,30)         64.8485         estimate D2E/DX2                !
 ! D84   D(27,13,31,32)        130.0506         estimate D2E/DX2                !
 ! D85   D(27,13,31,33)        -79.8208         estimate D2E/DX2                !
 ! D86   D(29,13,31,32)        -79.7472         estimate D2E/DX2                !
 ! D87   D(29,13,31,33)         70.3815         estimate D2E/DX2                !
 --------------------------------------------------------------------------------
 Trust Radius=3.00D-01 FncErr=1.00D-07 GrdErr=1.00D-06 EigMax=2.50D+02 EigMin=1.00D-04
 Number of steps in this run=    200 maximum allowed number of steps=    216.
 GradGradGradGradGradGradGradGradGradGradGradGradGradGradGradGradGradGrad

                          Input orientation:                          
 ---------------------------------------------------------------------
 Center     Atomic      Atomic             Coordinates (Angstroms)
 Number     Number       Type             X           Y           Z
 ---------------------------------------------------------------------
      1          6           0       -1.700968    2.171556   -0.782524
      2          6           0       -1.481663    0.860238   -0.347957
      3          6           0       -0.238329    0.567625    0.193810
      4          7           0        0.703657    1.517779    0.298378
      5          6           0        0.508781    2.781622   -0.105654
      6          6           0       -0.706991    3.140478   -0.660002
      7          6           0       -2.562871   -0.197918   -0.423995
      8          7           0       -2.003056   -1.540444   -0.329116
      9          6           0       -2.971991   -2.371152    0.381162
     10          6           0       -3.473278   -1.440382    1.476268
     11          6           0       -3.587645   -0.092752    0.744904
     12          8           0        3.096690    0.966076    1.297902
     13          8           0        5.078626    0.099838   -0.230850
     14          1           0       -2.485930   -3.277913    0.761272
     15          1           0       -4.426279   -1.762903    1.908121
     16          1           0       -2.732915   -1.383940    2.284301
     17          1           0       -4.594543    0.039014    0.332602
     18          1           0       -3.387178    0.762483    1.400197
     19          1           0       -3.806026   -2.681009   -0.280064
     20          1           0       -3.093439   -0.051679   -1.384956
     21          1           0        0.011701   -0.432060    0.541172
     22          1           0        1.342191    3.467154    0.026190
     23          1           0       -0.867885    4.162860   -0.993711
     24          1           0       -2.662438    2.437418   -1.223682
     25          6           0       -1.554456   -2.085040   -1.596666
     26          1           0        1.639551    1.264796    0.711498
     27          1           0        3.856394    0.631542    0.762676
     28          1           0        3.364096    0.944720    2.218621
     29          1           0        5.803816    0.669780   -0.495603
     30          1           0        5.435439   -0.808441   -0.217464
     31          8           0        6.045829   -2.477297   -0.199130
     32          1           0        6.151021   -3.009238   -0.992369
     33          1           0        6.671714   -2.829995    0.438936
     34          1           0       -0.784411   -1.437515   -2.038213
     35          1           0       -2.380477   -2.185888   -2.327476
     36          1           0       -1.111296   -3.075102   -1.436328
 ---------------------------------------------------------------------
                    Distance matrix (angstroms):
                    1          2          3          4          5
     1  C    0.000000
     2  C    1.398749   0.000000
     3  C    2.380155   1.387448   0.000000
     4  N    2.716246   2.371863   1.342038   0.000000
     5  C    2.390256   2.777102   2.355766   1.341088   0.000000
     6  C    1.393489   2.428370   2.751038   2.354054   1.383539
     7  C    2.546729   1.514756   2.524130   3.759740   4.291159
     8  N    3.751770   2.456721   2.798512   4.131921   5.003950
     9  C    4.858586   3.632434   4.018012   5.351731   6.237295
    10  C    4.614035   3.547842   4.017672   5.252136   6.015363
    11  C    3.319590   2.556892   3.457994   4.605265   5.076040
    12  O    5.366458   4.866351   3.535553   2.651421   3.458822
    13  O    7.110503   6.605249   5.354360   4.629362   5.300106
    14  H    5.718058   4.400368   4.490199   5.778096   6.814530
    15  H    5.490615   4.543294   5.090103   6.298443   7.004485
    16  H    4.807482   3.678417   3.794960   4.916695   5.794168
    17  H    3.763511   3.290531   4.390364   5.500804   5.810153
    18  H    3.097267   2.587776   3.377660   4.303418   4.639289
    19  H    5.313297   4.236473   4.848365   6.188833   6.963355
    20  H    2.691593   2.122447   3.320797   4.440129   4.758172
    21  H    3.385886   2.165807   1.087449   2.083176   3.315603
    22  H    3.404910   3.861366   3.306570   2.069269   1.087156
    23  H    2.168852   3.420677   3.838263   3.337018   2.142819
    24  H    1.090746   2.156066   3.373680   3.806967   3.380103
    25  C    4.336231   3.199881   3.460437   4.655166   5.492218
    26  H    3.770064   3.320857   2.068932   1.053834   2.060859
    27  H    5.970223   5.457166   4.134544   3.307679   4.072266
    28  H    6.013890   5.484144   4.149642   3.330715   4.114521
    29  H    7.658945   7.289463   6.082207   5.230787   5.713959
    30  H    7.754223   7.116728   5.852721   5.297844   6.096968
    31  O    9.053455   8.235559   6.994040   6.689316   7.637006
    32  H    9.409484   8.581723   7.417868   7.199561   8.133584
    33  H    9.829002   8.984129   7.704064   7.385161   8.352758
    34  H    3.929660   2.936460   3.049708   4.050650   4.817494
    35  H    4.672893   3.742358   4.304360   5.488546   6.161206
    36  H    5.320018   4.099832   4.085203   5.234292   6.220656
                    6          7          8          9         10
     6  C    0.000000
     7  C    3.826863   0.000000
     8  N    4.868295   1.457659   0.000000
     9  C    6.049158   2.353424   1.460618   0.000000
    10  C    5.761968   2.446131   2.330446   1.522130   0.000000
    11  C    4.552549   1.558059   2.400053   2.387979   1.537556
    12  O    4.798896   6.029133   5.910773   6.986157   6.999095
    13  O    6.550040   7.649735   7.269828   8.443505   8.855597
    14  H    6.810315   3.301083   2.107347   1.096793   2.205129
    15  H    6.668696   3.370494   3.305560   2.194658   1.094864
    16  H    5.765730   2.961491   2.717929   2.157240   1.097379
    17  H    5.071233   2.180887   3.106181   2.905845   2.180326
    18  H    4.133120   2.220254   3.195276   3.321217   2.205859
    19  H    6.605913   2.780628   2.134009   1.108533   2.175909
    20  H    4.050995   1.107400   2.126065   2.917855   3.203026
    21  H    3.836973   2.759491   2.458691   3.562036   3.746491
    22  H    2.185572   5.374470   6.032658   7.268011   7.026762
    23  H    1.087434   4.713167   5.853031   7.000775   6.654712
    24  H    2.153091   2.755795   4.130184   5.078749   4.794218
    25  C    5.376018   2.439936   1.450693   2.450116   3.679726
    26  H    3.302341   4.592301   4.713898   5.881799   5.834713
    27  H    5.398449   6.580513   6.343712   7.469174   7.650240
    28  H    5.448080   6.589232   6.439979   7.383581   7.279388
    29  H    6.965772   8.411865   8.115421   9.329029   9.716251
    30  H    7.315685   8.024236   7.475259   8.572357   9.090287
    31  O    8.796157   8.908190   8.104267   9.037095   9.720882
    32  H    9.217473   9.173793   8.311813   9.247869  10.058957
    33  H    9.555077   9.641060   8.803663   9.654787  10.292130
    34  H    4.781577   2.702817   2.101595   3.392722   4.425109
    35  H    5.826766   2.758357   2.133656   2.778656   4.027215
    36  H    6.276908   3.377880   2.091968   2.694625   4.090780
                   11         12         13         14         15
    11  C    0.000000
    12  O    6.790233   0.000000
    13  O    8.723155   2.648683   0.000000
    14  H    3.370355   7.033140   8.343621   0.000000
    15  H    2.201314   8.025880   9.919084   2.715782   0.000000
    16  H    2.183454   6.362378   8.339530   2.442898   1.775558
    17  H    1.095992   7.806812   9.689756   3.953734   2.399474
    18  H    1.095912   6.487870   8.646921   4.188708   2.777641
    19  H    2.792369   7.964841   9.309811   1.784188   2.452710
    20  H    2.186831   6.822848   8.254548   3.922238   3.943235
    21  H    3.621040   3.470530   5.152928   3.792820   4.830669
    22  H    6.123133   3.309216   5.036450   7.790429   8.010643
    23  H    5.341358   5.584691   7.242313   7.814291   7.496497
    24  H    3.336630   6.456840   8.147028   6.052785   5.528293
    25  C    3.685922   6.270645   7.115962   2.801867   4.542540
    26  H    5.400706   1.598861   3.751318   6.136634   6.884269
    27  H    7.479213   0.987689   1.662424   7.450430   8.697591
    28  H    7.181566   0.959002   3.106984   7.360523   8.253337
    29  H    9.503676   3.260825   0.959598   9.267357  10.786597
    30  H    9.102440   3.303784   0.975943   8.354897  10.133242
    31  O    9.969006   4.774447   2.752837   8.622892  10.705882
    32  H   10.313371   5.511570   3.375840   8.817277  11.038363
    33  H   10.622644   5.284768   3.401538   9.174256  11.245561
    34  H    4.172799   5.654189   6.324968   3.757572   5.379836
    35  H    3.908707   7.285438   8.078280   3.277805   4.722764
    36  H    4.447976   6.443158   7.060351   2.600038   4.888386
                   16         17         18         19         20
    16  H    0.000000
    17  H    3.049522   0.000000
    18  H    2.411811   1.766606   0.000000
    19  H    3.067560   2.897524   3.854393   0.000000
    20  H    3.920248   2.282881   2.916542   2.939718   0.000000
    21  H    3.387845   4.634965   3.703679   4.506355   3.673766
    22  H    6.725970   6.862277   5.618725   8.024826   5.835095
    23  H    6.707510   5.714297   4.862119   7.482012   4.782102
    24  H    5.187840   3.450709   3.196153   5.328837   2.531279
    25  C    4.116092   4.180408   4.521996   2.675479   2.558876
    26  H    5.348642   6.364749   5.098493   6.797564   5.341294
    27  H    7.056664   8.482593   7.272751   8.412668   7.306113
    28  H    6.526907   8.229053   6.803141   8.414273   7.461792
    29  H    9.209854  10.450343   9.384936  10.179553   8.970652
    30  H    8.562245  10.080739   9.106218   9.429481   8.641614
    31  O    9.188537  10.946784  10.101269   9.854293   9.529744
    32  H    9.607418  11.247868  10.532212   9.987888   9.713976
    33  H    9.692445  11.626309  10.724329  10.503437  10.315223
    34  H    4.741694   4.724194   4.841183   3.710461   2.771082
    35  H    4.694233   4.114401   4.858177   2.543468   2.439571
    36  H    4.396903   4.995983   5.287019   2.958686   3.615607
                   21         22         23         24         25
    21  H    0.000000
    22  H    4.152021   0.000000
    23  H    4.923701   2.531529   0.000000
    24  H    4.301120   4.319675   2.500091   0.000000
    25  C    3.123386   6.469241   6.314364   4.671121   0.000000
    26  H    2.357589   2.325608   4.194490   4.860769   5.172108
    27  H    3.995244   3.860612   6.154179   7.049963   6.497970
    28  H    3.993484   3.906088   6.211696   7.099064   6.923006
    29  H    5.986447   5.291849   7.547272   8.679407   7.933823
    30  H    5.489456   5.924083   8.065252   8.782009   7.238131
    31  O    6.414183   7.583632   9.618861  10.051768   7.737655
    32  H    6.832631   8.130557  10.035140  10.363234   7.784195
    33  H    7.079288   8.260040  10.382584  10.846028   8.506968
    34  H    2.880618   5.730617   5.697557   4.382414   1.098736
    35  H    4.126448   7.166232   6.661341   4.761599   1.107504
    36  H    3.486732   7.138604   7.255567   5.730544   1.096504
                   26         27         28         29         30
    26  H    0.000000
    27  H    2.306084   0.000000
    28  H    2.312558   1.568507   0.000000
    29  H    4.376327   2.318875   3.659896   0.000000
    30  H    4.423805   2.351087   3.646717   1.548612   0.000000
    31  O    5.852161   3.922190   4.974677   3.170262   1.777074
    32  H    6.443903   4.647663   5.806134   3.728606   2.440501
    33  H    6.493402   4.473597   5.325044   3.724921   2.458845
    34  H    4.554008   5.801986   6.403576   7.086965   6.511328
    35  H    6.107635   7.509029   7.966670   8.859642   8.212068
    36  H    5.569114   6.576684   7.038946   7.920093   7.034424
                   31         32         33         34         35
    31  O    0.000000
    32  H    0.960861   0.000000
    33  H    0.960862   1.533585   0.000000
    34  H    7.149514   7.187790   7.979290   0.000000
    35  H    8.695827   8.674496   9.487364   1.786382   0.000000
    36  H    7.287830   7.276172   8.009490   1.775052   1.787643
                   36
    36  H    0.000000
 Stoichiometry    C10H21N2O3(1+)
 Framework group  C1[X(C10H21N2O3)]
 Deg. of freedom   102
 Full point group                 C1      NOp   1
 Largest Abelian subgroup         C1      NOp   1
 Largest concise Abelian subgroup C1      NOp   1
                         Standard orientation:                         
 ---------------------------------------------------------------------
 Center     Atomic      Atomic             Coordinates (Angstroms)
 Number     Number       Type             X           Y           Z
 ---------------------------------------------------------------------
      1          6           0       -1.700968    2.171556   -0.782524
      2          6           0       -1.481663    0.860238   -0.347957
      3          6           0       -0.238329    0.567625    0.193810
      4          7           0        0.703657    1.517779    0.298378
      5          6           0        0.508781    2.781622   -0.105654
      6          6           0       -0.706991    3.140478   -0.660002
      7          6           0       -2.562871   -0.197918   -0.423995
      8          7           0       -2.003056   -1.540444   -0.329116
      9          6           0       -2.971991   -2.371152    0.381162
     10          6           0       -3.473278   -1.440382    1.476268
     11          6           0       -3.587645   -0.092752    0.744904
     12          8           0        3.096690    0.966076    1.297902
     13          8           0        5.078626    0.099838   -0.230850
     14          1           0       -2.485930   -3.277913    0.761272
     15          1           0       -4.426279   -1.762903    1.908121
     16          1           0       -2.732915   -1.383940    2.284301
     17          1           0       -4.594543    0.039014    0.332602
     18          1           0       -3.387178    0.762483    1.400197
     19          1           0       -3.806026   -2.681009   -0.280064
     20          1           0       -3.093439   -0.051679   -1.384956
     21          1           0        0.011701   -0.432060    0.541172
     22          1           0        1.342191    3.467154    0.026190
     23          1           0       -0.867885    4.162860   -0.993711
     24          1           0       -2.662438    2.437418   -1.223682
     25          6           0       -1.554456   -2.085040   -1.596666
     26          1           0        1.639551    1.264796    0.711498
     27          1           0        3.856394    0.631542    0.762676
     28          1           0        3.364096    0.944720    2.218621
     29          1           0        5.803816    0.669780   -0.495603
     30          1           0        5.435439   -0.808441   -0.217464
     31          8           0        6.045829   -2.477297   -0.199130
     32          1           0        6.151021   -3.009238   -0.992369
     33          1           0        6.671714   -2.829995    0.438936
     34          1           0       -0.784411   -1.437515   -2.038213
     35          1           0       -2.380477   -2.185888   -2.327476
     36          1           0       -1.111296   -3.075102   -1.436328
 ---------------------------------------------------------------------
 Rotational constants (GHZ):           0.5945895           0.2266256           0.1816316
 Standard basis: Aug-CC-pVDZ (5D, 7F)
 There are   564 symmetry adapted cartesian basis functions of A   symmetry.
 There are   534 symmetry adapted basis functions of A   symmetry.
   534 basis functions,   876 primitive gaussians,   564 cartesian basis functions
    59 alpha electrons       59 beta electrons
       nuclear repulsion energy      1011.3885124916 Hartrees.
 NAtoms=   36 NActive=   36 NUniq=   36 SFac= 1.00D+00 NAtFMM=   60 NAOKFM=F Big=F
 Integral buffers will be    131072 words long.
 Raffenetti 2 integral format.
 Two-electron integral symmetry is turned on.
 Nuclear repulsion after empirical dispersion term =     1011.3658095444 Hartrees.
 One-electron integrals computed using PRISM.
 NBasis=   534 RedAO= T EigKep=  2.47D-06  NBF=   534
 NBsUse=   534 1.00D-06 EigRej= -1.00D+00 NBFU=   534
 ExpMin= 2.97D-02 ExpMax= 1.17D+04 ExpMxC= 4.01D+02 IAcc=3 IRadAn=         5 AccDes= 0.00D+00
 Harris functional with IExCor= 4639 and IRadAn=       5 diagonalized for initial guess.
 HarFok:  IExCor= 4639 AccDes= 0.00D+00 IRadAn=         5 IDoV= 1 UseB2=F ITyADJ=14
 ICtDFT=  3500011 ScaDFX=  1.000000  1.000000  1.000000  1.000000
 FoFCou: FMM=F IPFlag=           0 FMFlag=      100000 FMFlg1=           0
         NFxFlg=           0 DoJE=T BraDBF=F KetDBF=T FulRan=T
         wScrn=  0.000000 ICntrl=       500 IOpCl=  0 I1Cent=   200000004 NGrid=           0
         NMat0=    1 NMatS0=      1 NMatT0=    0 NMatD0=    1 NMtDS0=    0 NMtDT0=    0
 Petite list used in FoFCou.
 Requested convergence on RMS density matrix=1.00D-08 within 128 cycles.
 Requested convergence on MAX density matrix=1.00D-06.
 Requested convergence on             energy=1.00D-06.
 No special actions if energy rises.
 SCF Done:  E(RwB97XD) =  -728.588115944     A.U. after   14 cycles
            NFock= 14  Conv=0.68D-08     -V/T= 2.0063

 **********************************************************************

            Population analysis using the SCF density.

 **********************************************************************

 Orbital symmetries:
       Occupied  (A) (A) (A) (A) (A) (A) (A) (A) (A) (A) (A) (A)
                 (A) (A) (A) (A) (A) (A) (A) (A) (A) (A) (A) (A)
                 (A) (A) (A) (A) (A) (A) (A) (A) (A) (A) (A) (A)
                 (A) (A) (A) (A) (A) (A) (A) (A) (A) (A) (A) (A)
                 (A) (A) (A) (A) (A) (A) (A) (A) (A) (A) (A)
       Virtual   (A) (A) (A) (A) (A) (A) (A) (A) (A) (A) (A) (A)
                 (A) (A) (A) (A) (A) (A) (A) (A) (A) (A) (A) (A)
                 (A) (A) (A) (A) (A) (A) (A) (A) (A) (A) (A) (A)
                 (A) (A) (A) (A) (A) (A) (A) (A) (A) (A) (A) (A)
                 (A) (A) (A) (A) (A) (A) (A) (A) (A) (A) (A) (A)
                 (A) (A) (A) (A) (A) (A) (A) (A) (A) (A) (A) (A)
                 (A) (A) (A) (A) (A) (A) (A) (A) (A) (A) (A) (A)
                 (A) (A) (A) (A) (A) (A) (A) (A) (A) (A) (A) (A)
                 (A) (A) (A) (A) (A) (A) (A) (A) (A) (A) (A) (A)
                 (A) (A) (A) (A) (A) (A) (A) (A) (A) (A) (A) (A)
                 (A) (A) (A) (A) (A) (A) (A) (A) (A) (A) (A) (A)
                 (A) (A) (A) (A) (A) (A) (A) (A) (A) (A) (A) (A)
                 (A) (A) (A) (A) (A) (A) (A) (A) (A) (A) (A) (A)
                 (A) (A) (A) (A) (A) (A) (A) (A) (A) (A) (A) (A)
                 (A) (A) (A) (A) (A) (A) (A) (A) (A) (A) (A) (A)
                 (A) (A) (A) (A) (A) (A) (A) (A) (A) (A) (A) (A)
                 (A) (A) (A) (A) (A) (A) (A) (A) (A) (A) (A) (A)
                 (A) (A) (A) (A) (A) (A) (A) (A) (A) (A) (A) (A)
                 (A) (A) (A) (A) (A) (A) (A) (A) (A) (A) (A) (A)
                 (A) (A) (A) (A) (A) (A) (A) (A) (A) (A) (A) (A)
                 (A) (A) (A) (A) (A) (A) (A) (A) (A) (A) (A) (A)
                 (A) (A) (A) (A) (A) (A) (A) (A) (A) (A) (A) (A)
                 (A) (A) (A) (A) (A) (A) (A) (A) (A) (A) (A) (A)
                 (A) (A) (A) (A) (A) (A) (A) (A) (A) (A) (A) (A)
                 (A) (A) (A) (A) (A) (A) (A) (A) (A) (A) (A) (A)
                 (A) (A) (A) (A) (A) (A) (A) (A) (A) (A) (A) (A)
                 (A) (A) (A) (A) (A) (A) (A) (A) (A) (A) (A) (A)
                 (A) (A) (A) (A) (A) (A) (A) (A) (A) (A) (A) (A)
                 (A) (A) (A) (A) (A) (A) (A) (A) (A) (A) (A) (A)
                 (A) (A) (A) (A) (A) (A) (A) (A) (A) (A) (A) (A)
                 (A) (A) (A) (A) (A) (A) (A) (A) (A) (A) (A) (A)
                 (A) (A) (A) (A) (A) (A) (A) (A) (A) (A) (A) (A)
                 (A) (A) (A) (A) (A) (A) (A) (A) (A) (A) (A) (A)
                 (A) (A) (A) (A) (A) (A) (A) (A) (A) (A) (A) (A)
                 (A) (A) (A) (A) (A) (A) (A) (A) (A) (A) (A) (A)
                 (A) (A) (A) (A) (A) (A) (A) (A) (A) (A) (A) (A)
                 (A) (A) (A) (A) (A) (A) (A) (A) (A) (A) (A) (A)
                 (A) (A) (A) (A) (A) (A) (A) (A) (A) (A) (A) (A)
                 (A) (A) (A) (A) (A) (A) (A) (A) (A) (A) (A) (A)
                 (A) (A) (A) (A) (A) (A) (A)
 The electronic state is 1-A.
 Alpha  occ. eigenvalues --  -19.39910 -19.38985 -19.38003 -14.66868 -14.54846
 Alpha  occ. eigenvalues --  -10.50317 -10.49556 -10.46971 -10.46220 -10.46144
 Alpha  occ. eigenvalues --  -10.44861 -10.41325 -10.41280 -10.40291 -10.39047
 Alpha  occ. eigenvalues --   -1.25177  -1.24358  -1.23464  -1.21771  -1.15268
 Alpha  occ. eigenvalues --   -1.07383  -1.03678  -0.99002  -0.94658  -0.89825
 Alpha  occ. eigenvalues --   -0.88380  -0.87124  -0.81684  -0.78325  -0.77407
 Alpha  occ. eigenvalues --   -0.74819  -0.74636  -0.73584  -0.73539  -0.72926
 Alpha  occ. eigenvalues --   -0.69914  -0.68657  -0.68198  -0.66861  -0.63730
 Alpha  occ. eigenvalues --   -0.63341  -0.63296  -0.61872  -0.61446  -0.60309
 Alpha  occ. eigenvalues --   -0.58946  -0.57250  -0.56492  -0.55977  -0.54946
 Alpha  occ. eigenvalues --   -0.54109  -0.52867  -0.52750  -0.52176  -0.52116
 Alpha  occ. eigenvalues --   -0.51462  -0.50906  -0.48176  -0.40798
 Alpha virt. eigenvalues --   -0.13354  -0.09778  -0.06375  -0.05199  -0.04415
 Alpha virt. eigenvalues --   -0.04043  -0.03437  -0.03048  -0.02612  -0.02322
 Alpha virt. eigenvalues --   -0.01821  -0.01336  -0.00955  -0.00689  -0.00581
 Alpha virt. eigenvalues --   -0.00059   0.00221   0.01276   0.01514   0.01803
 Alpha virt. eigenvalues --    0.02059   0.02535   0.02731   0.03363   0.03494
 Alpha virt. eigenvalues --    0.03659   0.04172   0.04511   0.04627   0.05051
 Alpha virt. eigenvalues --    0.05555   0.05640   0.05717   0.06366   0.06636
 Alpha virt. eigenvalues --    0.06976   0.07172   0.07422   0.07963   0.08128
 Alpha virt. eigenvalues --    0.08426   0.08539   0.08882   0.09070   0.09688
 Alpha virt. eigenvalues --    0.10051   0.10229   0.10394   0.10573   0.10769
 Alpha virt. eigenvalues --    0.11400   0.11734   0.11889   0.12108   0.12700
 Alpha virt. eigenvalues --    0.12743   0.12966   0.13106   0.13338   0.13583
 Alpha virt. eigenvalues --    0.14016   0.14602   0.15332   0.15598   0.15843
 Alpha virt. eigenvalues --    0.15945   0.16210   0.16606   0.16739   0.16830
 Alpha virt. eigenvalues --    0.17014   0.17160   0.17720   0.17897   0.18276
 Alpha virt. eigenvalues --    0.18690   0.19065   0.19461   0.19708   0.20173
 Alpha virt. eigenvalues --    0.20388   0.20875   0.21078   0.21596   0.21943
 Alpha virt. eigenvalues --    0.22097   0.22326   0.22594   0.23110   0.23169
 Alpha virt. eigenvalues --    0.23595   0.23839   0.24292   0.24759   0.25350
 Alpha virt. eigenvalues --    0.25542   0.25910   0.26576   0.26754   0.26988
 Alpha virt. eigenvalues --    0.27495   0.27664   0.28368   0.28749   0.28846
 Alpha virt. eigenvalues --    0.29199   0.29589   0.29900   0.30015   0.30668
 Alpha virt. eigenvalues --    0.31066   0.31342   0.31999   0.32524   0.33332
 Alpha virt. eigenvalues --    0.33645   0.33857   0.34040   0.34716   0.35169
 Alpha virt. eigenvalues --    0.35680   0.35910   0.36271   0.36558   0.36670
 Alpha virt. eigenvalues --    0.37244   0.37556   0.38386   0.38741   0.39407
 Alpha virt. eigenvalues --    0.39524   0.39782   0.40317   0.41104   0.41665
 Alpha virt. eigenvalues --    0.42171   0.42387   0.43156   0.43420   0.43471
 Alpha virt. eigenvalues --    0.43974   0.44205   0.44455   0.44757   0.45458
 Alpha virt. eigenvalues --    0.45610   0.45813   0.46235   0.46765   0.47116
 Alpha virt. eigenvalues --    0.47253   0.48047   0.48466   0.49270   0.49566
 Alpha virt. eigenvalues --    0.49910   0.50241   0.50685   0.50961   0.51037
 Alpha virt. eigenvalues --    0.51177   0.51319   0.51736   0.52364   0.52669
 Alpha virt. eigenvalues --    0.52955   0.53301   0.53600   0.53979   0.54509
 Alpha virt. eigenvalues --    0.55120   0.55861   0.56226   0.56808   0.57129
 Alpha virt. eigenvalues --    0.57435   0.57802   0.58287   0.58432   0.58687
 Alpha virt. eigenvalues --    0.59186   0.59609   0.60078   0.60558   0.61067
 Alpha virt. eigenvalues --    0.62304   0.62485   0.62757   0.63213   0.63802
 Alpha virt. eigenvalues --    0.64115   0.64614   0.64925   0.65754   0.65921
 Alpha virt. eigenvalues --    0.66440   0.66495   0.67519   0.67827   0.68621
 Alpha virt. eigenvalues --    0.68988   0.69627   0.70160   0.70494   0.70561
 Alpha virt. eigenvalues --    0.71201   0.71701   0.71905   0.72280   0.72919
 Alpha virt. eigenvalues --    0.73980   0.74305   0.74769   0.75183   0.76144
 Alpha virt. eigenvalues --    0.76286   0.76745   0.77299   0.77617   0.78400
 Alpha virt. eigenvalues --    0.78642   0.79223   0.79424   0.80102   0.80488
 Alpha virt. eigenvalues --    0.80915   0.81929   0.82063   0.82227   0.82919
 Alpha virt. eigenvalues --    0.84907   0.85988   0.86023   0.86313   0.86673
 Alpha virt. eigenvalues --    0.88044   0.88441   0.89436   0.90107   0.91107
 Alpha virt. eigenvalues --    0.92381   0.92797   0.93801   0.94884   0.95879
 Alpha virt. eigenvalues --    0.96101   0.97010   0.97384   0.98161   0.98750
 Alpha virt. eigenvalues --    0.99436   1.00539   1.01129   1.01916   1.02163
 Alpha virt. eigenvalues --    1.02793   1.03354   1.04008   1.04336   1.05683
 Alpha virt. eigenvalues --    1.07733   1.08359   1.09330   1.09963   1.10418
 Alpha virt. eigenvalues --    1.11261   1.11621   1.12843   1.13514   1.14725
 Alpha virt. eigenvalues --    1.15949   1.16661   1.18523   1.18933   1.19654
 Alpha virt. eigenvalues --    1.20728   1.22120   1.22455   1.23294   1.24110
 Alpha virt. eigenvalues --    1.25559   1.26111   1.27785   1.28096   1.30408
 Alpha virt. eigenvalues --    1.30745   1.31861   1.32519   1.33521   1.34962
 Alpha virt. eigenvalues --    1.35218   1.35572   1.36186   1.36873   1.38040
 Alpha virt. eigenvalues --    1.39020   1.40162   1.40966   1.41539   1.42661
 Alpha virt. eigenvalues --    1.42921   1.44318   1.45897   1.46056   1.47589
 Alpha virt. eigenvalues --    1.48726   1.50307   1.50761   1.51373   1.53001
 Alpha virt. eigenvalues --    1.53487   1.54667   1.56346   1.57674   1.58350
 Alpha virt. eigenvalues --    1.59086   1.60764   1.61654   1.62369   1.63446
 Alpha virt. eigenvalues --    1.63830   1.64192   1.64728   1.65809   1.67021
 Alpha virt. eigenvalues --    1.68259   1.69206   1.69759   1.71112   1.71870
 Alpha virt. eigenvalues --    1.71913   1.72289   1.73087   1.73789   1.74734
 Alpha virt. eigenvalues --    1.75105   1.76069   1.77357   1.78678   1.79233
 Alpha virt. eigenvalues --    1.79638   1.80653   1.81976   1.82800   1.83475
 Alpha virt. eigenvalues --    1.83827   1.85345   1.85817   1.86134   1.86843
 Alpha virt. eigenvalues --    1.87906   1.88837   1.89288   1.90304   1.90676
 Alpha virt. eigenvalues --    1.91819   1.92953   1.93480   1.94707   1.94993
 Alpha virt. eigenvalues --    1.95796   1.96409   1.97501   1.97749   1.98167
 Alpha virt. eigenvalues --    2.00613   2.02378   2.03457   2.04206   2.05376
 Alpha virt. eigenvalues --    2.06165   2.06924   2.08169   2.08981   2.09488
 Alpha virt. eigenvalues --    2.09864   2.11313   2.11942   2.12445   2.14197
 Alpha virt. eigenvalues --    2.14752   2.15542   2.16187   2.17008   2.19191
 Alpha virt. eigenvalues --    2.19708   2.20261   2.21972   2.22289   2.23767
 Alpha virt. eigenvalues --    2.24316   2.25375   2.26756   2.28175   2.28984
 Alpha virt. eigenvalues --    2.30301   2.30386   2.31879   2.32122   2.34037
 Alpha virt. eigenvalues --    2.35792   2.36558   2.36775   2.38934   2.41128
 Alpha virt. eigenvalues --    2.42216   2.43316   2.43890   2.44506   2.47399
 Alpha virt. eigenvalues --    2.48518   2.48787   2.50450   2.50578   2.53667
 Alpha virt. eigenvalues --    2.54273   2.55493   2.56849   2.56869   2.57128
 Alpha virt. eigenvalues --    2.58392   2.60903   2.62864   2.63981   2.64551
 Alpha virt. eigenvalues --    2.65112   2.66340   2.66911   2.68524   2.69133
 Alpha virt. eigenvalues --    2.70843   2.72792   2.73892   2.74702   2.76600
 Alpha virt. eigenvalues --    2.77933   2.78685   2.81019   2.82083   2.83450
 Alpha virt. eigenvalues --    2.84676   2.84820   2.85008   2.87483   2.89815
 Alpha virt. eigenvalues --    2.90736   2.97325   3.02669   3.04067   3.10805
 Alpha virt. eigenvalues --    3.14946   3.16058   3.21345   3.25582   3.28896
 Alpha virt. eigenvalues --    3.32120   3.34147   3.35624   3.40590   3.43034
 Alpha virt. eigenvalues --    3.45135   3.46115   3.48415   3.50392   3.56532
 Alpha virt. eigenvalues --    3.61768   3.66240   3.77575   3.78961   3.81417
 Alpha virt. eigenvalues --    3.89744   4.03263   4.05464   4.18842   4.53877
          Condensed to atoms (all electrons):
               1          2          3          4          5          6
     1  C   21.856470 -10.005713  -1.899787   0.178365   1.761427  -4.182305
     2  C  -10.005713  20.341324  -2.708042  -0.024926  -2.010998   1.934370
     3  C   -1.899787  -2.708042  15.686109  -1.564664  -0.580008  -1.019773
     4  N    0.178365  -0.024926  -1.564664   7.766546   0.411047   0.029579
     5  C    1.761427  -2.010998  -0.580008   0.411047   9.896626  -2.795178
     6  C   -4.182305   1.934370  -1.019773   0.029579  -2.795178  11.926640
     7  C   -0.236952  -4.443722  -3.064725   0.702342  -0.190439  -0.428590
     8  N   -0.321454   0.856332   0.900461  -0.141774  -0.020471   0.018729
     9  C    0.091269  -0.209861  -0.305257   0.054711  -0.001750  -0.010107
    10  C   -0.271348   0.449290   0.145728  -0.071852  -0.028067   0.059503
    11  C   -0.446593   0.446432  -0.436229   0.056173  -0.223695   0.360840
    12  O    0.057468  -0.108900   0.048531  -0.175165   0.072945  -0.064730
    13  O   -0.000866   0.003241  -0.008611   0.002209   0.008077   0.001695
    14  H    0.012085  -0.202390  -0.057365   0.010837  -0.001048  -0.000593
    15  H   -0.000942  -0.060262  -0.008684  -0.003710  -0.005721   0.008616
    16  H   -0.012187   0.147580   0.085732  -0.006054   0.014445  -0.010887
    17  H   -0.060430   0.247659   0.105027  -0.009823   0.014330  -0.021160
    18  H    0.142588  -0.527992  -0.095500   0.027867  -0.023263   0.039563
    19  H   -0.008778   0.211050   0.018285  -0.001355   0.002422   0.001860
    20  H   -0.065916   0.535634  -0.058537   0.006540  -0.041624   0.070414
    21  H   -0.114075  -0.247394  -0.972919   0.020703  -0.085716   0.069905
    22  H    0.012120   0.115942   0.219127  -0.055362  -0.879298   0.314046
    23  H    0.695863  -0.259293   0.016518  -0.030590   0.480664  -1.152335
    24  H   -2.249814   1.128462   0.242011  -0.094471  -0.204401   0.770273
    25  C   -0.089055  -0.036622   0.177380  -0.015529  -0.018287  -0.024285
    26  H    0.112379  -0.489435   0.434523  -0.069536  -0.234565  -0.229267
    27  H    0.007957  -0.010664   0.009412   0.000502  -0.005163  -0.004064
    28  H   -0.005466   0.010110  -0.001263   0.001585  -0.011754   0.012146
    29  H   -0.000536   0.000782   0.001435  -0.000085  -0.002022   0.000431
    30  H   -0.000373   0.000837  -0.003081   0.001554   0.001410   0.000058
    31  O   -0.000019   0.000112   0.000722   0.000066   0.000085   0.000088
    32  H    0.000003  -0.000004   0.000030  -0.000052  -0.000045   0.000012
    33  H    0.000004  -0.000013   0.000018   0.000010  -0.000022   0.000006
    34  H   -0.177041   0.208718  -0.080630  -0.005711  -0.045465   0.051767
    35  H    0.043562   0.011850   0.076440  -0.006117   0.005464  -0.006520
    36  H    0.031201  -0.021060  -0.030216   0.008903   0.006421  -0.008574
               7          8          9         10         11         12
     1  C   -0.236952  -0.321454   0.091269  -0.271348  -0.446593   0.057468
     2  C   -4.443722   0.856332  -0.209861   0.449290   0.446432  -0.108900
     3  C   -3.064725   0.900461  -0.305257   0.145728  -0.436229   0.048531
     4  N    0.702342  -0.141774   0.054711  -0.071852   0.056173  -0.175165
     5  C   -0.190439  -0.020471  -0.001750  -0.028067  -0.223695   0.072945
     6  C   -0.428590   0.018729  -0.010107   0.059503   0.360840  -0.064730
     7  C   18.086682  -2.651307   0.073645  -0.976346  -0.255604   0.001277
     8  N   -2.651307   9.389364   0.033166   0.077541  -0.390159   0.002774
     9  C    0.073645   0.033166   5.468818   0.242757  -0.030885   0.000451
    10  C   -0.976346   0.077541   0.242757   5.630572   0.060348  -0.000606
    11  C   -0.255604  -0.390159  -0.030885   0.060348   6.049654  -0.001206
    12  O    0.001277   0.002774   0.000451  -0.000606  -0.001206   7.984469
    13  O    0.000208   0.000136   0.000008  -0.000013   0.000026  -0.045239
    14  H    0.497703  -0.651743   0.026808  -0.057274   0.069313   0.000050
    15  H    0.068426  -0.002586   0.076805  -0.211120   0.248675  -0.000007
    16  H   -0.140673   0.067452  -0.059077  -0.108041  -0.035871  -0.000173
    17  H    0.276386   0.137479  -0.190353   0.095536  -0.668308  -0.000053
    18  H   -0.089654   0.020983   0.151785   0.162057  -0.107866   0.000258
    19  H   -0.415773   0.387327  -0.298936   0.002824  -0.034950  -0.000033
    20  H   -1.502227  -0.194563  -0.044647   0.103461   0.361017   0.000144
    21  H    0.675017  -0.397587   0.026106   0.033199   0.035307  -0.008093
    22  H    0.006716   0.003025  -0.000683   0.000211   0.005641   0.001499
    23  H   -0.009453  -0.002355  -0.000839   0.000246  -0.014984  -0.001423
    24  H   -0.470718   0.056816  -0.018668   0.027123   0.061619   0.001084
    25  C   -0.339044   0.463164  -0.241294  -0.006304  -0.020666  -0.000538
    26  H   -0.095115   0.018891   0.003784   0.005956  -0.036815   0.019185
    27  H   -0.001459   0.001074   0.000077   0.000107  -0.000222   0.319837
    28  H    0.001426  -0.000198  -0.000163  -0.000012   0.000841   0.362961
    29  H    0.000029  -0.000024  -0.000024   0.000001   0.000009   0.001799
    30  H    0.000236  -0.000030   0.000104  -0.000023   0.000021   0.001134
    31  O    0.000069  -0.000012   0.000001  -0.000000   0.000001   0.000882
    32  H    0.000025  -0.000020  -0.000007   0.000000   0.000002  -0.000105
    33  H   -0.000009   0.000002  -0.000003   0.000001  -0.000002   0.000222
    34  H    0.086456  -0.073157  -0.135660  -0.024712   0.058957   0.000202
    35  H   -0.100335   0.152243   0.061808   0.043572  -0.047021   0.000048
    36  H   -0.022509  -0.334167   0.075346   0.004959  -0.003738  -0.000175
              13         14         15         16         17         18
     1  C   -0.000866   0.012085  -0.000942  -0.012187  -0.060430   0.142588
     2  C    0.003241  -0.202390  -0.060262   0.147580   0.247659  -0.527992
     3  C   -0.008611  -0.057365  -0.008684   0.085732   0.105027  -0.095500
     4  N    0.002209   0.010837  -0.003710  -0.006054  -0.009823   0.027867
     5  C    0.008077  -0.001048  -0.005721   0.014445   0.014330  -0.023263
     6  C    0.001695  -0.000593   0.008616  -0.010887  -0.021160   0.039563
     7  C    0.000208   0.497703   0.068426  -0.140673   0.276386  -0.089654
     8  N    0.000136  -0.651743  -0.002586   0.067452   0.137479   0.020983
     9  C    0.000008   0.026808   0.076805  -0.059077  -0.190353   0.151785
    10  C   -0.000013  -0.057274  -0.211120  -0.108041   0.095536   0.162057
    11  C    0.000026   0.069313   0.248675  -0.035871  -0.668308  -0.107866
    12  O   -0.045239   0.000050  -0.000007  -0.000173  -0.000053   0.000258
    13  O    7.776005   0.000007  -0.000001  -0.000027   0.000001   0.000013
    14  H    0.000007   2.396708   0.012355  -0.203956  -0.018982   0.012964
    15  H   -0.000001   0.012355   1.808084  -0.395964  -0.221191   0.050326
    16  H   -0.000027  -0.203956  -0.395964   2.038111   0.158936  -0.245513
    17  H    0.000001  -0.018982  -0.221191   0.158936   2.165066  -0.451904
    18  H    0.000013   0.012964   0.050326  -0.245513  -0.451904   2.283148
    19  H   -0.000002  -0.383366  -0.146342   0.145942   0.065948  -0.017316
    20  H    0.000003   0.034831   0.027727  -0.037630  -0.252051   0.100631
    21  H    0.003103   0.014754   0.010830  -0.026834  -0.010927   0.024195
    22  H    0.002320  -0.000102  -0.000108   0.000351   0.001062  -0.000168
    23  H    0.000007  -0.000060   0.000106   0.000119  -0.001568  -0.003073
    24  H   -0.000037  -0.002177   0.001512   0.003146   0.000821  -0.011322
    25  C    0.000023  -0.024594   0.007685  -0.009127   0.000075   0.002956
    26  H   -0.017803  -0.002226  -0.000139   0.003711   0.000558   0.000392
    27  H   -0.005636  -0.000037   0.000036  -0.000097  -0.000018   0.000025
    28  H    0.004519   0.000079   0.000003  -0.000072   0.000006   0.000032
    29  H    0.363722   0.000001   0.000000  -0.000003  -0.000000   0.000002
    30  H    0.325617   0.000011  -0.000005   0.000014   0.000003  -0.000007
    31  O   -0.033615   0.000014  -0.000000   0.000004   0.000000   0.000001
    32  H    0.001162   0.000002   0.000000  -0.000002  -0.000000   0.000001
    33  H    0.001431  -0.000002   0.000000   0.000000  -0.000000  -0.000000
    34  H    0.000151  -0.009482  -0.000923  -0.001653  -0.000102  -0.000543
    35  H    0.000005   0.020102   0.006237  -0.003953   0.000890   0.000491
    36  H   -0.000041   0.018763  -0.004171   0.006984   0.000697   0.000666
              19         20         21         22         23         24
     1  C   -0.008778  -0.065916  -0.114075   0.012120   0.695863  -2.249814
     2  C    0.211050   0.535634  -0.247394   0.115942  -0.259293   1.128462
     3  C    0.018285  -0.058537  -0.972919   0.219127   0.016518   0.242011
     4  N   -0.001355   0.006540   0.020703  -0.055362  -0.030590  -0.094471
     5  C    0.002422  -0.041624  -0.085716  -0.879298   0.480664  -0.204401
     6  C    0.001860   0.070414   0.069905   0.314046  -1.152335   0.770273
     7  C   -0.415773  -1.502227   0.675017   0.006716  -0.009453  -0.470718
     8  N    0.387327  -0.194563  -0.397587   0.003025  -0.002355   0.056816
     9  C   -0.298936  -0.044647   0.026106  -0.000683  -0.000839  -0.018668
    10  C    0.002824   0.103461   0.033199   0.000211   0.000246   0.027123
    11  C   -0.034950   0.361017   0.035307   0.005641  -0.014984   0.061619
    12  O   -0.000033   0.000144  -0.008093   0.001499  -0.001423   0.001084
    13  O   -0.000002   0.000003   0.003103   0.002320   0.000007  -0.000037
    14  H   -0.383366   0.034831   0.014754  -0.000102  -0.000060  -0.002177
    15  H   -0.146342   0.027727   0.010830  -0.000108   0.000106   0.001512
    16  H    0.145942  -0.037630  -0.026834   0.000351   0.000119   0.003146
    17  H    0.065948  -0.252051  -0.010927   0.001062  -0.001568   0.000821
    18  H   -0.017316   0.100631   0.024195  -0.000168  -0.003073  -0.011322
    19  H    1.963528  -0.052239   0.003415   0.000098  -0.000026   0.000770
    20  H   -0.052239   2.431235   0.047211  -0.000931   0.000173  -0.041244
    21  H    0.003415   0.047211   3.032155   0.012854  -0.001218  -0.024523
    22  H    0.000098  -0.000931   0.012854   2.177327  -0.120860  -0.012384
    23  H   -0.000026   0.000173  -0.001218  -0.120860   2.078151  -0.131188
    24  H    0.000770  -0.041244  -0.024523  -0.012384  -0.131188   2.820392
    25  C    0.007959   0.085576  -0.074097  -0.000504   0.002779   0.007294
    26  H    0.000093  -0.007231  -0.082312  -0.149334   0.013765   0.012605
    27  H   -0.000014  -0.000024   0.004355  -0.001249   0.000076   0.000087
    28  H   -0.000011   0.000079   0.001996   0.007418  -0.000309  -0.000150
    29  H   -0.000000   0.000006   0.000238   0.000028   0.000015  -0.000017
    30  H    0.000001  -0.000012  -0.001104   0.000247  -0.000009  -0.000000
    31  O    0.000001   0.000003  -0.000181  -0.000040   0.000004  -0.000001
    32  H   -0.000000   0.000001  -0.000021  -0.000012   0.000000   0.000000
    33  H    0.000000  -0.000000   0.000010  -0.000007   0.000001   0.000000
    34  H    0.000720   0.019425   0.010613   0.000253   0.000341  -0.004239
    35  H    0.007407  -0.004503   0.001230   0.000101  -0.000071   0.002791
    36  H   -0.003340   0.014593  -0.001441  -0.000091   0.000084   0.001687
              25         26         27         28         29         30
     1  C   -0.089055   0.112379   0.007957  -0.005466  -0.000536  -0.000373
     2  C   -0.036622  -0.489435  -0.010664   0.010110   0.000782   0.000837
     3  C    0.177380   0.434523   0.009412  -0.001263   0.001435  -0.003081
     4  N   -0.015529  -0.069536   0.000502   0.001585  -0.000085   0.001554
     5  C   -0.018287  -0.234565  -0.005163  -0.011754  -0.002022   0.001410
     6  C   -0.024285  -0.229267  -0.004064   0.012146   0.000431   0.000058
     7  C   -0.339044  -0.095115  -0.001459   0.001426   0.000029   0.000236
     8  N    0.463164   0.018891   0.001074  -0.000198  -0.000024  -0.000030
     9  C   -0.241294   0.003784   0.000077  -0.000163  -0.000024   0.000104
    10  C   -0.006304   0.005956   0.000107  -0.000012   0.000001  -0.000023
    11  C   -0.020666  -0.036815  -0.000222   0.000841   0.000009   0.000021
    12  O   -0.000538   0.019185   0.319837   0.362961   0.001799   0.001134
    13  O    0.000023  -0.017803  -0.005636   0.004519   0.363722   0.325617
    14  H   -0.024594  -0.002226  -0.000037   0.000079   0.000001   0.000011
    15  H    0.007685  -0.000139   0.000036   0.000003   0.000000  -0.000005
    16  H   -0.009127   0.003711  -0.000097  -0.000072  -0.000003   0.000014
    17  H    0.000075   0.000558  -0.000018   0.000006  -0.000000   0.000003
    18  H    0.002956   0.000392   0.000025   0.000032   0.000002  -0.000007
    19  H    0.007959   0.000093  -0.000014  -0.000011  -0.000000   0.000001
    20  H    0.085576  -0.007231  -0.000024   0.000079   0.000006  -0.000012
    21  H   -0.074097  -0.082312   0.004355   0.001996   0.000238  -0.001104
    22  H   -0.000504  -0.149334  -0.001249   0.007418   0.000028   0.000247
    23  H    0.002779   0.013765   0.000076  -0.000309   0.000015  -0.000009
    24  H    0.007294   0.012605   0.000087  -0.000150  -0.000017  -0.000000
    25  C    4.582550  -0.003537  -0.000294   0.000388   0.000024  -0.000090
    26  H   -0.003537   1.711583   0.001040  -0.018187   0.001114   0.001188
    27  H   -0.000294   0.001040   0.514656  -0.111414  -0.004986  -0.003611
    28  H    0.000388  -0.018187  -0.111414   0.610104  -0.000382  -0.000301
    29  H    0.000024   0.001114  -0.004986  -0.000382   0.612442  -0.106959
    30  H   -0.000090   0.001188  -0.003611  -0.000301  -0.106959   0.542113
    31  O   -0.000009  -0.001277  -0.002763   0.000798   0.000640   0.008398
    32  H    0.000009   0.000066   0.000883  -0.000089  -0.001042  -0.003729
    33  H    0.000001   0.000150   0.000174  -0.000081  -0.000277  -0.002375
    34  H    0.342178  -0.014281  -0.000465   0.000346   0.000081  -0.000186
    35  H    0.049337   0.003208   0.000168  -0.000057  -0.000005  -0.000006
    36  H    0.381514   0.001656  -0.000193  -0.000027  -0.000010   0.000043
              31         32         33         34         35         36
     1  C   -0.000019   0.000003   0.000004  -0.177041   0.043562   0.031201
     2  C    0.000112  -0.000004  -0.000013   0.208718   0.011850  -0.021060
     3  C    0.000722   0.000030   0.000018  -0.080630   0.076440  -0.030216
     4  N    0.000066  -0.000052   0.000010  -0.005711  -0.006117   0.008903
     5  C    0.000085  -0.000045  -0.000022  -0.045465   0.005464   0.006421
     6  C    0.000088   0.000012   0.000006   0.051767  -0.006520  -0.008574
     7  C    0.000069   0.000025  -0.000009   0.086456  -0.100335  -0.022509
     8  N   -0.000012  -0.000020   0.000002  -0.073157   0.152243  -0.334167
     9  C    0.000001  -0.000007  -0.000003  -0.135660   0.061808   0.075346
    10  C   -0.000000   0.000000   0.000001  -0.024712   0.043572   0.004959
    11  C    0.000001   0.000002  -0.000002   0.058957  -0.047021  -0.003738
    12  O    0.000882  -0.000105   0.000222   0.000202   0.000048  -0.000175
    13  O   -0.033615   0.001162   0.001431   0.000151   0.000005  -0.000041
    14  H    0.000014   0.000002  -0.000002  -0.009482   0.020102   0.018763
    15  H   -0.000000   0.000000   0.000000  -0.000923   0.006237  -0.004171
    16  H    0.000004  -0.000002   0.000000  -0.001653  -0.003953   0.006984
    17  H    0.000000  -0.000000  -0.000000  -0.000102   0.000890   0.000697
    18  H    0.000001   0.000001  -0.000000  -0.000543   0.000491   0.000666
    19  H    0.000001  -0.000000   0.000000   0.000720   0.007407  -0.003340
    20  H    0.000003   0.000001  -0.000000   0.019425  -0.004503   0.014593
    21  H   -0.000181  -0.000021   0.000010   0.010613   0.001230  -0.001441
    22  H   -0.000040  -0.000012  -0.000007   0.000253   0.000101  -0.000091
    23  H    0.000004   0.000000   0.000001   0.000341  -0.000071   0.000084
    24  H   -0.000001   0.000000   0.000000  -0.004239   0.002791   0.001687
    25  C   -0.000009   0.000009   0.000001   0.342178   0.049337   0.381514
    26  H   -0.001277   0.000066   0.000150  -0.014281   0.003208   0.001656
    27  H   -0.002763   0.000883   0.000174  -0.000465   0.000168  -0.000193
    28  H    0.000798  -0.000089  -0.000081   0.000346  -0.000057  -0.000027
    29  H    0.000640  -0.001042  -0.000277   0.000081  -0.000005  -0.000010
    30  H    0.008398  -0.003729  -0.002375  -0.000186  -0.000006   0.000043
    31  O    7.630666   0.358120   0.355538   0.000118  -0.000003  -0.000079
    32  H    0.358120   0.574213  -0.075834  -0.000005  -0.000000  -0.000005
    33  H    0.355538  -0.075834   0.571091   0.000005   0.000000   0.000003
    34  H    0.000118  -0.000005   0.000005   1.996206  -0.417518  -0.495582
    35  H   -0.000003  -0.000000   0.000000  -0.417518   1.575733  -0.310033
    36  H   -0.000079  -0.000005   0.000003  -0.495582  -0.310033   1.898875
 Mulliken charges:
               1
     1  C    1.146891
     2  C    0.717565
     3  C    0.727803
     4  N   -0.002761
     5  C    0.733640
     6  C    0.287829
     7  C    0.958013
     8  N   -0.405349
     9  C    1.160766
    10  C    0.610728
    11  C    0.939942
    12  O   -0.470773
    13  O   -0.381798
    14  H   -0.511988
    15  H   -0.265549
    16  H   -0.374732
    17  H   -0.363609
    18  H   -0.446823
    19  H   -0.457168
    20  H   -0.535323
    21  H   -0.978754
    22  H   -0.659250
    23  H   -0.559256
    24  H   -0.873137
    25  C    0.792982
    26  H    0.105216
    27  H    0.291904
    28  H    0.135101
    29  H    0.133573
    30  H    0.238916
    31  O   -0.318328
    32  H    0.146441
    33  H    0.149958
    34  H   -0.289182
    35  H   -0.166543
    36  H   -0.216944
 Sum of Mulliken charges =   1.00000
 Mulliken charges with hydrogens summed into heavy atoms:
               1
     1  C    0.273754
     2  C    0.717565
     3  C   -0.250951
     4  N    0.102455
     5  C    0.074390
     6  C   -0.271427
     7  C    0.422690
     8  N   -0.405349
     9  C    0.191610
    10  C   -0.029554
    11  C    0.129510
    12  O   -0.043768
    13  O   -0.009309
    25  C    0.120313
    31  O   -0.021929
 Electronic spatial extent (au):  <R**2>=           6073.1822
 Charge=              1.0000 electrons
 Dipole moment (field-independent basis, Debye):
    X=              5.7610    Y=              1.7526    Z=             -0.1319  Tot=              6.0231
 Quadrupole moment (field-independent basis, Debye-Ang):
   XX=             -5.2280   YY=            -55.1191   ZZ=            -82.1888
   XY=            -16.2353   XZ=              3.4114   YZ=             -0.6236
 Traceless Quadrupole moment (field-independent basis, Debye-Ang):
   XX=             42.2840   YY=             -7.6071   ZZ=            -34.6769
   XY=            -16.2353   XZ=              3.4114   YZ=             -0.6236
 Octapole moment (field-independent basis, Debye-Ang**2):
  XXX=            475.9028  YYY=             10.4831  ZZZ=             18.4970  XYY=             91.6114
  XXY=           -140.2993  XXZ=             -0.6994  XZZ=             44.0597  YZZ=             -7.7095
  YYZ=            -20.7426  XYZ=             20.1370
 Hexadecapole moment (field-independent basis, Debye-Ang**3):
 XXXX=          -1720.0716 YYYY=          -1480.6812 ZZZZ=           -469.7375 XXXY=           -990.8931
 XXXZ=            -48.7409 YYYX=           -304.4669 YYYZ=            -22.9150 ZZZX=             49.9203
 ZZZY=             30.0085 XXYY=           -520.9657 XXZZ=           -767.9639 YYZZ=           -367.4066
 XXYZ=             18.0538 YYXZ=            -17.8664 ZZXY=            -42.3104
 N-N= 1.011365809544D+03 E-N=-3.707451480649D+03  KE= 7.240212817245D+02
 Calling FoFJK, ICntrl=      2127 FMM=F ISym2X=0 I1Cent= 0 IOpClX= 0 NMat=1 NMatS=1 NMatT=0.
 ***** Axes restored to original set *****
 -------------------------------------------------------------------
 Center     Atomic                   Forces (Hartrees/Bohr)
 Number     Number              X              Y              Z
 -------------------------------------------------------------------
      1        6          -0.000000249   -0.000001490    0.000000194
      2        6          -0.000000558    0.000001843   -0.000000317
      3        6          -0.000000593   -0.000000716    0.000000649
      4        7          -0.000001421   -0.000003813    0.000000063
      5        6           0.000000585    0.000001915    0.000000640
      6        6           0.000000979    0.000000021    0.000000435
      7        6          -0.000001786   -0.000000592   -0.000002229
      8        7          -0.000000906   -0.000002575    0.000001072
      9        6           0.000002895    0.000001098   -0.000001104
     10        6          -0.000001733   -0.000000549   -0.000000501
     11        6           0.000002352    0.000000826   -0.000000484
     12        8           0.000000649    0.000000173    0.000005774
     13        8           0.000000929   -0.000004835    0.000001658
     14        1          -0.000000208    0.000000013   -0.000001028
     15        1          -0.000000426    0.000000307   -0.000000256
     16        1          -0.000000454   -0.000000328   -0.000000971
     17        1          -0.000000447   -0.000000640   -0.000000756
     18        1          -0.000000477    0.000000249    0.000000121
     19        1          -0.000000077   -0.000000099   -0.000000427
     20        1           0.000000448    0.000000191    0.000000582
     21        1           0.000000635    0.000000475   -0.000000120
     22        1          -0.000000324   -0.000000543    0.000000601
     23        1           0.000000082    0.000000315    0.000000476
     24        1           0.000000284   -0.000000010   -0.000000148
     25        6          -0.000001626    0.000001286   -0.000000185
     26        1           0.000001150    0.000002012   -0.000001982
     27        1          -0.000001615    0.000003120   -0.000002183
     28        1           0.000000574   -0.000000733    0.000000405
     29        1          -0.000000170    0.000002360    0.000001319
     30        1          -0.000001806    0.000000142   -0.000000936
     31        8           0.000000150    0.000000275   -0.000000542
     32        1           0.000000443    0.000000112    0.000000939
     33        1           0.000000248    0.000000202    0.000000892
     34        1           0.000000134   -0.000000386   -0.000000592
     35        1           0.000001943    0.000000124    0.000000135
     36        1           0.000000398    0.000000251   -0.000001194
 -------------------------------------------------------------------
 Cartesian Forces:  Max     0.000005774 RMS     0.000001315

 GradGradGradGradGradGradGradGradGradGradGradGradGradGradGradGradGradGrad
 Berny optimization.
 FormGI is forming the generalized inverse of G from B-inverse, IUseBI=4.
 Internal  Forces:  Max     0.000005706 RMS     0.000000806
 Search for a local minimum.
 Step number   1 out of a maximum of  200
 All quantities printed in internal units (Hartrees-Bohrs-Radians)
 Mixed Optimization -- En-DIIS/RFO-DIIS
 Second derivative matrix not updated -- first step.
 ITU=  0
     Eigenvalues ---    0.00230   0.00230   0.00230   0.00230   0.00230
     Eigenvalues ---    0.00230   0.00230   0.00230   0.00230   0.00289
     Eigenvalues ---    0.00391   0.00571   0.00887   0.00978   0.01021
     Eigenvalues ---    0.01123   0.01519   0.01935   0.02102   0.02138
     Eigenvalues ---    0.02172   0.02241   0.02289   0.02348   0.02381
     Eigenvalues ---    0.02444   0.02616   0.03421   0.04642   0.04889
     Eigenvalues ---    0.05058   0.05306   0.05712   0.06149   0.06284
     Eigenvalues ---    0.06383   0.06680   0.06796   0.06979   0.07273
     Eigenvalues ---    0.07580   0.07988   0.08256   0.09116   0.09325
     Eigenvalues ---    0.10406   0.13403   0.15103   0.15939   0.15999
     Eigenvalues ---    0.16000   0.16000   0.16000   0.16000   0.16000
     Eigenvalues ---    0.16000   0.16000   0.16000   0.16000   0.16000
     Eigenvalues ---    0.16000   0.16334   0.18327   0.20676   0.21999
     Eigenvalues ---    0.22000   0.23454   0.24987   0.25871   0.27245
     Eigenvalues ---    0.28938   0.30877   0.32756   0.32866   0.32877
     Eigenvalues ---    0.33822   0.33974   0.34039   0.34072   0.34129
     Eigenvalues ---    0.34138   0.34257   0.34727   0.34738   0.35109
     Eigenvalues ---    0.35111   0.35143   0.35591   0.38154   0.39349
     Eigenvalues ---    0.43273   0.43605   0.46783   0.48155   0.49918
     Eigenvalues ---    0.52181   0.54306   0.55288   0.55289   0.55560
     Eigenvalues ---    0.55689   0.56211
 RFO step:  Lambda= 0.00000000D+00 EMin= 2.30000000D-03
 Linear search not attempted -- first point.
 Iteration  1 RMS(Cart)=  0.00079757 RMS(Int)=  0.00000014
 Iteration  2 RMS(Cart)=  0.00000041 RMS(Int)=  0.00000002
 Variable       Old X    -DE/DX   Delta X   Delta X   Delta X     New X
                                 (Linear)    (Quad)   (Total)
    R1        2.64325  -0.00000   0.00000  -0.00000  -0.00000   2.64325
    R2        2.63331   0.00000   0.00000   0.00000   0.00000   2.63331
    R3        2.06121  -0.00000   0.00000  -0.00000  -0.00000   2.06121
    R4        2.62190   0.00000   0.00000   0.00000   0.00000   2.62190
    R5        2.86247   0.00000   0.00000   0.00000   0.00000   2.86248
    R6        2.53608   0.00000   0.00000   0.00000   0.00000   2.53608
    R7        2.05498  -0.00000   0.00000  -0.00000  -0.00000   2.05498
    R8        2.53429   0.00000   0.00000   0.00000   0.00000   2.53429
    R9        1.99146   0.00000   0.00000   0.00000   0.00000   1.99146
   R10        2.61451  -0.00000   0.00000  -0.00000  -0.00000   2.61451
   R11        2.05443  -0.00000   0.00000  -0.00000  -0.00000   2.05443
   R12        2.05495   0.00000   0.00000   0.00000   0.00000   2.05495
   R13        2.75458   0.00000   0.00000   0.00000   0.00000   2.75458
   R14        2.94430  -0.00000   0.00000  -0.00000  -0.00000   2.94430
   R15        2.09268  -0.00000   0.00000  -0.00000  -0.00000   2.09268
   R16        2.76017  -0.00000   0.00000  -0.00000  -0.00000   2.76016
   R17        2.74141   0.00000   0.00000   0.00000   0.00000   2.74141
   R18        2.87641   0.00000   0.00000   0.00000   0.00000   2.87641
   R19        2.07264  -0.00000   0.00000  -0.00000  -0.00000   2.07264
   R20        2.09482  -0.00000   0.00000  -0.00000  -0.00000   2.09482
   R21        2.90556  -0.00000   0.00000  -0.00000  -0.00000   2.90556
   R22        2.06899   0.00000   0.00000   0.00000   0.00000   2.06899
   R23        2.07375  -0.00000   0.00000  -0.00000  -0.00000   2.07374
   R24        2.07113   0.00000   0.00000   0.00000   0.00000   2.07113
   R25        2.07097   0.00000   0.00000   0.00000   0.00000   2.07097
   R26        3.02141   0.00000   0.00000   0.00000   0.00000   3.02141
   R27        1.86646  -0.00000   0.00000  -0.00000  -0.00000   1.86646
   R28        1.81225   0.00000   0.00000   0.00000   0.00000   1.81225
   R29        3.14153   0.00000   0.00000   0.00001   0.00001   3.14153
   R30        1.81338   0.00000   0.00000   0.00000   0.00000   1.81338
   R31        1.84427  -0.00000   0.00000  -0.00000  -0.00000   1.84426
   R32        2.07631  -0.00000   0.00000  -0.00000  -0.00000   2.07631
   R33        2.09288  -0.00000   0.00000  -0.00000  -0.00000   2.09287
   R34        2.07209  -0.00000   0.00000  -0.00000  -0.00000   2.07209
[...]
 00000545,-0.00001499,0.00000138,-0.00004082,-0.00000276,-0.00000010,-0
 .00002095,0.00000491,-0.00000317,-0.00000630,0.00000408,-0.00000196,-0
 .00000397,0.00003680,-0.00000216,-0.00006355,-0.00021985,0.00005473,-0
 .00014703,0.00038965,0.00010471,-0.00055151,-0.00011268,0.00022988,-0.
 00002774,0.00011035,-0.00033022,-0.00033288,-0.00239640,-0.00085263,-0
 .01039736,0.18981345,0.12495705,0.63690766,0.00000081,0.00003130,-0.00
 000576,0.00003006,-0.00003919,0.00001765,-0.00003428,0.00003535,-0.000
 02227,-0.00002501,0.00002161,-0.00002810,0.00002438,-0.00001077,0.0000
 1570,-0.00003372,-0.00000826,-0.00001101,-0.00000960,0.00005570,-0.000
 01266,0.00006799,-0.00003782,-0.00002291,-0.00003100,-0.00001785,0.000
 00080,0.00000192,0.00000114,0.00000330,-0.00000610,-0.00000324,-0.0000
 0298,-0.00021659,-0.00000849,0.00001751,-0.00035353,0.00101314,-0.0004
 2055,-0.00000348,-0.00000688,0.00000726,0.00000644,-0.00000061,-0.0000
 0317,-0.00000323,0.00000071,0.00000131,0.00000412,-0.00000015,0.000001
 80,0.00000077,-0.00000699,-0.00000437,0.00000676,0.00000138,0.00000453
 ,0.00000091,-0.00000705,0.00000821,-0.00001418,0.00002176,0.00002207,0
 .00000600,0.00000112,0.00000487,-0.00000039,0.00000101,0.00000085,-0.0
 0000055,0.00000324,0.00000134,-0.00005272,0.00003052,0.00002891,0.0001
 0449,0.00001218,0.00006589,0.00025896,-0.00004582,-0.00009431,0.000029
 31,0.00000294,-0.00000515,-0.00003013,0.00006013,-0.00013889,0.0005216
 6,-0.00204313,0.00157532,-0.03051334,0.06359821,0.05408218,0.02829691,
 0.00000401,0.00000382,-0.00000020,0.00002409,0.00000669,0.00000287,0.0
 0000117,0.00002152,-0.00000401,-0.00004879,0.00001648,-0.00001595,0.00
 001365,-0.00002659,0.00001248,-0.00001988,-0.00000678,-0.00000437,0.00
 000141,0.00003372,0.00000431,-0.00000855,-0.00004023,0.00000097,0.0000
 0616,0.00002060,-0.00001371,-0.00000588,0.00000135,0.00000322,0.000003
 42,-0.00000753,-0.00000656,-0.00015432,0.00003864,0.00007333,0.0005427
 0,-0.00157472,0.00147174,0.00000170,-0.00000632,0.00000429,-0.00000150
 ,-0.00000171,0.00000150,0.00000092,0.00000146,-0.00000053,-0.00000213,
 -0.00000130,0.00000211,0.00000201,-0.00000379,-0.00000312,-0.00000515,
 -0.00000292,-0.00000102,-0.00000071,-0.00000668,0.00000247,0.00001113,
 0.00001547,-0.00000258,0.00000579,-0.00000542,-0.00000516,0.00000171,-
 0.00000201,-0.00000207,0.00000034,0.00000166,-0.00000150,0.00000184,0.
 00003052,-0.00000049,0.00009847,-0.00002176,0.00001844,0.00016883,-0.0
 0008285,-0.00011027,0.00001227,0.00000826,-0.00002042,0.00019683,-0.00
 039507,-0.00030256,-0.00110631,0.00194330,-0.00361608,0.04383214,-0.18
 633307,-0.25409715,-0.04559553,0.17861337,-0.00000314,-0.00000650,-0.0
 0000008,-0.00000756,0.00001697,-0.00000951,0.00002192,0.00000584,0.000
 00934,-0.00008018,0.00001844,-0.00004263,0.00000211,-0.00002410,0.0000
 1064,-0.00000636,0.00000143,-0.00000572,0.00000731,0.00001037,0.000006
 37,-0.00000349,-0.00000354,-0.00003919,0.00000750,-0.00001707,0.000009
 97,0.00000792,0.00000266,0.00000413,-0.00000054,-0.00000270,-0.0000004
 1,-0.00022151,0.00013821,0.00003236,-0.00118978,0.00226275,-0.00071281
 ,0.00000192,0.00000458,0.00000246,0.00000067,-0.00000126,-0.00000164,-
 0.00000235,-0.00000257,-0.00000517,-0.00000182,0.00000055,-0.00000168,
 0.00000246,-0.00000211,-0.00000154,-0.00000475,0.00000194,-0.00000476,
 -0.00000689,-0.00000053,-0.00000407,0.00001594,-0.00000019,0.00001493,
 0.00000495,-0.00000410,0.00000987,-0.00000282,0.00000158,0.00000303,-0
 .00000279,0.00000116,0.00000216,-0.00001368,-0.00000156,0.00003619,0.0
 0017957,-0.00005104,0.00009105,0.00020321,-0.00010977,-0.00014028,0.00
 001355,-0.00004876,-0.00001398,0.00000979,-0.00000638,0.00023758,0.001
 79744,-0.00329983,0.00121626,0.01759737,-0.21574127,-0.37581088,-0.026
 90163,0.23842656,0.39889304,0.00000248,0.00002067,-0.00000415,0.000020
 84,-0.00003223,0.00001589,-0.00003298,0.00001085,-0.00001453,0.0000534
 0,-0.00000480,0.00002029,0.00001342,0.00001573,0.00000025,-0.00001199,
 -0.00000539,-0.00000263,-0.00000963,0.00001995,-0.00000887,0.00003741,
 -0.00001583,0.00001124,-0.00002211,0.00000271,-0.00000619,-0.00000596,
 -0.00000186,-0.00000280,-0.00000308,0.00000121,-0.00000093,0.00003367,
 -0.00018772,0.00006174,0.00045879,-0.00058376,-0.00011686,-0.00000332,
 -0.00000716,0.00000124,0.00000357,0.00000109,-0.00000009,-0.00000045,0
 .00000257,0.00000530,0.00000355,-0.00000031,0.00000272,-0.00000207,-0.
 00000237,-0.00000121,0.00000693,-0.00000075,0.00000636,0.00000456,-0.0
 0000298,0.00000677,-0.00001775,0.00001029,-0.00000612,0.,0.00000561,-0
 .00000233,0.00000139,0.00000044,0.00000020,0.00000089,0.00000121,0.000
 00017,-0.00001641,0.00001319,-0.00000908,-0.00009779,0.00004605,-0.000
 04660,0.00002964,0.00010407,-0.00008374,0.00000132,0.00012247,0.000015
 38,0.00007677,0.00014114,0.00013910,-0.00104447,0.00017552,-0.00010166
 ,-0.23517607,0.13236744,-0.24224478,0.00197255,0.00202626,0.00858202,0
 .23372046,0.00000262,0.00000535,0.00000004,0.00001715,0.00000024,0.000
 00206,-0.00000208,0.00002215,-0.00000377,-0.00005864,0.00001791,-0.000
 02689,0.00001369,-0.00002179,0.00001168,-0.00001912,-0.00000529,-0.000
 00630,-0.00000016,0.00002672,0.00000446,-0.00000365,-0.00002823,-0.000
 00061,0.00000337,0.00001525,-0.00001095,-0.00000385,0.00000114,0.00000
 218,0.00000254,-0.00000445,-0.00000422,-0.00010269,0.00002139,-0.00010
 126,-0.00006505,-0.00256583,-0.00122713,0.00000122,-0.00000532,0.00000
 242,-0.00000131,-0.00000118,0.00000095,0.00000061,0.00000211,-0.000000
 35,-0.00000163,-0.00000112,0.00000158,0.00000152,-0.00000342,-0.000002
 48,-0.00000318,-0.00000254,-0.00000037,-0.00000110,-0.00000561,0.00000
 190,0.00000730,0.00001263,0.00000137,0.00000612,-0.00000315,0.00000176
 ,0.00000061,-0.00000057,-0.00000021,-0.00000037,0.00000135,-0.00000066
 ,-0.00000253,0.00001554,0.00000363,0.00012958,-0.00002191,0.00005202,0
 .00001022,-0.00006345,0.00012801,0.00009542,-0.00002982,-0.00001351,0.
 00041768,-0.00041146,0.00025686,0.00074503,0.00402984,0.00295879,0.150
 09446,-0.10149039,0.12992183,-0.01704831,0.00777797,-0.02158281,-0.134
 23193,0.09272489,-0.00000238,-0.00000013,-0.00000035,-0.00000714,-0.00
 000163,-0.00000263,-0.00000187,-0.00000599,0.00000481,0.00000080,-0.00
 000294,-0.00000953,-0.00000527,0.00000609,0.00000192,0.00000440,0.0000
 0225,-0.00000325,0.00000183,0.00000101,-0.00000116,0.00001621,0.000002
 83,-0.00002721,-0.00000598,-0.00001778,0.00001308,0.00001031,0.0000004
 1,0.00000580,-0.00000364,0.00000178,0.00000307,0.00017976,-0.00001234,
 -0.00032292,0.00063353,-0.00217248,-0.00060549,0.00000013,0.00000430,0
 .00000338,0.00000270,0.00000053,-0.00000228,-0.00000402,-0.00000246,-0
 .00000338,0.00000090,0.00000136,-0.00000254,0.00000065,-0.00000238,0.0
 0000052,0.00000068,0.00000268,-0.00000323,-0.00000182,0.00000164,-0.00
 000190,-0.00000340,-0.00000169,0.00001859,-0.00000331,0.00000395,0.000
 00924,-0.00000181,0.00000156,0.00000341,-0.00000113,0.00000060,0.00000
 249,-0.00001745,0.00000350,0.00002348,0.00000293,0.00000265,0.00003329
 ,-0.00036841,0.00011244,0.00045395,0.00006421,-0.00009806,0.00006271,-
 0.00000139,0.00004045,0.00004997,-0.00068326,0.00369467,0.00078449,-0.
 20542347,0.09062020,-0.25557100,-0.02817144,0.01817815,-0.02379102,0.2
 3378993,-0.11037009,0.27887861,0.00003511,0.00034821,0.00001184,0.0001
 7659,0.00014981,0.00001275,0.00017412,0.00001130,0.00020427,-0.0000502
 3,0.00020074,-0.00011252,0.00008031,-0.00011645,0.00010783,-0.00011414
 ,0.00000379,-0.00012635,0.00034601,-0.00144763,0.00042198,-0.00694795,
 -0.00436794,0.00672021,0.00026550,0.00252088,0.00068248,-0.00006764,-0
 .00056043,0.00039959,-0.00010500,-0.00010515,-0.00001342,-0.00006663,0
 .00004703,-0.00002428,-0.00001168,0.00003293,0.00000276,0.00007269,-0.
 00020066,0.00009797,-0.00003863,0.00015694,0.00014095,-0.00004851,0.00
 011689,0.00011446,0.00002478,0.00000655,-0.00003956,0.00004349,0.00008
 934,-0.00003168,0.00041864,0.00017008,-0.00026381,-0.00051080,-0.00000
 255,-0.00038129,-0.00005617,-0.00000553,-0.00003307,0.00000559,0.00001
 434,0.00000400,0.00000056,0.00000441,-0.00000169,-0.00003651,0.0000060
 7,0.00003101,-0.17685828,-0.11154406,0.07093679,0.00013028,-0.00004696
 ,0.00007730,0.00001750,-0.00002429,-0.00001981,-0.00000766,-0.00000684
 ,0.00000819,0.00000566,-0.00000616,0.00000609,-0.00000256,-0.00002369,
 0.00000031,0.00000864,0.00001569,-0.00000193,-0.00000761,-0.00000385,0
 .00000245,-0.00000286,-0.00000278,0.00000138,0.18916613,0.00013179,0.0
 0025574,0.00001999,-0.00024100,-0.00033994,-0.00019244,-0.00024025,-0.
 00017726,-0.00023172,0.00021015,0.00015163,0.00000186,0.00005967,-0.00
 004175,0.00006132,-0.00008213,-0.00005329,-0.00008947,0.00124359,0.000
 46539,0.00043239,0.01169104,0.00993603,-0.00748906,0.00078234,-0.00087
 723,-0.00152888,0.00048231,0.00042465,-0.00064445,-0.00016824,0.000261
 28,0.00017383,0.00008295,-0.00006881,-0.00003571,-0.00001235,-0.000049
 81,-0.00005608,-0.00006403,0.00028048,-0.00029819,0.00000549,-0.000101
 72,-0.00018631,0.00001815,0.00003447,-0.00001991,-0.00002865,0.0000032
 0,0.00002020,-0.00001844,0.00002431,0.00002485,0.00021276,-0.00005885,
 -0.00007546,0.00003994,-0.00014398,-0.00021941,-0.00002751,0.00016207,
 0.00007739,0.00000256,0.00000035,-0.00000465,0.00000769,0.00001236,-0.
 00000654,-0.00000709,-0.00000822,0.00000956,-0.11481988,-0.14693826,0.
 06309117,-0.00013073,0.00007392,-0.00000666,-0.00002930,0.00004718,0.0
 0006527,-0.00000460,0.00000699,0.00001242,0.00000590,0.00001288,0.0000
 0735,0.00002952,0.00001907,0.00002279,-0.00003946,-0.00000400,-0.00003
 199,0.00003570,-0.00000473,0.00001497,0.00000609,-0.00000158,0.0000130
 8,0.12179120,0.15250346,-0.00017761,-0.00058111,0.00007391,0.00015046,
 -0.00011569,-0.00027690,0.00014012,-0.00041878,-0.00002382,-0.00023342
 ,-0.00037205,0.00008197,-0.00020286,0.00030036,-0.00022101,0.00036619,
 0.00010982,0.00015186,-0.00023539,0.00132989,0.00076569,0.02270975,0.0
 2053844,-0.01794339,0.00102559,-0.00501370,-0.00291893,0.00148090,0.00
 108447,-0.00056106,-0.00008351,0.00027220,-0.00023706,0.00009094,0.000
 01738,0.00005382,0.00005327,-0.00000234,-0.00000840,-0.00023035,-0.000
 05470,0.00014884,0.00015651,-0.00044392,-0.00044748,-0.00005616,0.0000
 0596,-0.00003267,-0.00001901,-0.00003753,0.00005257,-0.00000903,-0.000
 10280,0.00001610,0.00041687,0.00012705,-0.00001028,-0.00005193,-0.0004
 1989,0.00003331,0.00011145,0.00010993,-0.00039798,-0.00000802,0.000003
 07,-0.00001504,0.00000409,-0.00000706,-0.00000151,-0.00001524,0.000050
 10,-0.00001177,0.06737654,0.05671085,-0.08442006,-0.00012355,-0.000028
 59,-0.00007275,-0.00005624,-0.00000505,0.00001442,0.00000656,-0.000004
 72,-0.00002098,-0.00000519,-0.00000634,0.00000442,-0.00002817,0.000020
 25,-0.00000484,0.00002820,-0.00001412,0.00000396,-0.00001370,0.0000028
 9,0.00000400,-0.00000539,0.00000174,-0.00000444,-0.08202154,-0.0636743
 1,0.09975934,-0.00004044,0.00028847,-0.00012644,-0.00028936,-0.0002990
 2,-0.00000447,-0.00011310,0.00018966,0.00001137,0.00012403,0.00017483,
 -0.00005022,0.00009704,-0.00012169,0.00006321,-0.00016838,-0.00006549,
 -0.00001758,0.00242159,-0.00089533,0.00239805,0.01129020,0.00054830,0.
 00732136,0.00363333,0.00146746,0.00122556,-0.00003844,0.00013028,0.000
 15940,0.00004291,-0.00017108,0.00001777,-0.00009193,-0.00003397,-0.000
 03378,-0.00006359,-0.00000732,0.00001136,-0.00040790,0.00001082,-0.000
 09965,-0.00004354,-0.00003610,-0.00008938,-0.00013860,0.00003303,0.000
 04462,0.00003861,0.00000693,-0.00001723,0.00002789,-0.00005074,0.00004
 049,0.00009736,0.00032204,-0.00203070,-0.00006893,-0.00156133,-0.00125
 685,0.00010594,0.00023350,0.00019608,0.00000801,-0.00000145,0.00000636
 ,-0.00000656,-0.00000761,-0.00001348,0.00002584,-0.00001438,-0.0000128
 5,-0.19484200,-0.01315518,-0.11591056,0.00008989,0.00001479,0.00007404
 ,0.00006519,0.00000912,-0.00002191,0.00000694,0.00001577,0.00001715,0.
 00000855,0.00001013,-0.00000582,0.00003615,-0.00001254,0.00000352,-0.0
 0004567,0.00000794,0.00000220,0.00002480,-0.00000259,-0.00000878,0.000
 01296,-0.00000048,0.00000182,-0.01610920,-0.00005614,-0.01368645,0.203
 43169,-0.00004091,0.00024737,-0.00008861,0.00008598,-0.00043984,0.0006
 5968,-0.00010226,0.00001209,0.00001146,0.00014809,0.00016796,0.0000239
 1,0.00010633,-0.00016439,0.00007621,-0.00016289,-0.00008776,-0.0000641
 7,-0.00337807,0.00319255,-0.00297014,-0.00731633,-0.00376530,-0.014693
 98,0.00062051,-0.00003349,0.00130728,-0.00010299,0.00014833,0.00018018
 ,-0.00000281,0.00014741,0.00020571,-0.00002616,0.00001609,-0.00000326,
 -0.00000930,0.00001884,0.00000386,0.00020782,0.00001295,-0.00008983,0.
 00005625,-0.00000634,0.00003903,-0.00004230,-0.00006831,0.00007052,0.0
 0006651,-0.00000979,0.00000909,-0.00004360,-0.00002135,0.00008451,0.00
 039531,0.00021573,-0.00013005,0.00066105,-0.00008490,0.00136739,0.0001
 8138,0.00008921,0.00006334,0.00001176,-0.00000940,-0.00001058,-0.00000
 427,-0.00000598,-0.00001601,0.00001262,-0.00002449,0.00000852,-0.01362
 334,-0.05148041,-0.01025639,0.00004282,0.00001113,0.00003575,0.0000153
 4,-0.00001176,-0.00001064,-0.00000017,-0.00000456,-0.00000014,0.000000
 59,-0.00000226,0.00000007,-0.00000088,-0.00001894,0.00000012,0.0000131
 9,0.00001510,0.00000110,-0.00001120,-0.00000416,0.00000119,-0.00000506
 ,-0.00000233,-0.00000141,-0.01510246,-0.00122428,-0.01204132,0.0153818
 4,0.04949574,-0.00019415,-0.00006056,-0.00004661,0.00015961,-0.0004072
 0,0.00036556,-0.00009799,0.00006183,0.00003551,-0.00008959,-0.00019793
 ,0.00005407,-0.00001073,-0.00005311,-0.00005255,-0.00000983,-0.0000671
 1,0.00003795,-0.00166275,0.00492349,-0.00001196,-0.01497544,-0.0113830
 3,-0.03703057,-0.00434662,-0.00279614,0.00184773,0.00039351,0.00019265
 ,0.00031769,-0.00013086,0.00035973,0.00040834,-0.00011292,0.00002836,0
 .00001791,-0.00002297,0.00002996,0.00004075,0.00022119,0.00029998,-0.0
 0009779,0.00023212,-0.00011491,-0.00003341,0.00002610,0.00023269,0.000
 29230,0.00009825,-0.00005023,-0.00003121,0.00000581,-0.00001736,0.0000
 6853,0.00171805,0.00100873,0.00042998,0.00089884,-0.00151885,0.0010131
 9,0.00045632,0.00024813,-0.00006507,0.00000453,-0.00001691,-0.00000153
 ,-0.00001523,-0.00001882,-0.00001552,0.00002766,0.00001024,-0.00000161
 ,-0.11583955,-0.00977219,-0.13997766,0.00014498,-0.00003534,0.00004739
 ,0.00005164,-0.00003221,-0.00006031,0.00001239,0.00000644,-0.00000025,
 0.00000078,-0.00000272,-0.00000582,-0.00000030,-0.00002071,-0.00000966
 ,0.00000309,0.00001175,0.00001485,-0.00000890,-0.00000118,-0.00000804,
 0.00000153,-0.00000170,-0.00000582,0.00904845,0.00103682,0.00847329,0.
 12835297,0.01854413,0.16650343,0.00003670,0.00019631,-0.00003359,-0.00
 009210,-0.00004766,0.00012120,0.00010383,0.00003090,0.00007867,0.00004
 113,0.00008653,-0.00004079,0.00005241,-0.00003571,0.00004112,-0.000058
 58,-0.00001043,-0.00003281,-0.00040709,-0.00001022,0.00172793,-0.00421
 283,0.00999055,0.00053591,0.00027407,0.00101519,-0.00078660,-0.0000178
 7,0.00001389,0.00005540,0.00007844,0.00044782,0.00012667,0.00000049,0.
 00002911,0.00001091,0.00001377,0.00002432,0.00000520,0.00005506,-0.000
 16219,0.00039962,0.00000275,-0.00002755,0.00000481,0.00000841,-0.00005
 026,-0.00003759,-0.00000164,0.00000285,0.00001771,-0.00013807,-0.00000
 278,0.00016277,-0.00026175,0.00004124,-0.00020786,0.00016222,-0.000400
 57,0.00015877,-0.00001843,-0.00008038,0.00000363,-0.00000041,0.0000032
 8,0.00000832,0.00000102,0.00000227,-0.00000021,-0.00000769,-0.00001408
 ,0.00000343,-0.09074420,0.09698376,-0.01778088,0.00001593,-0.00001475,
 0.00000024,-0.00000479,-0.00001654,-0.00000743,-0.00000098,-0.00000665
 ,-0.00000806,-0.00000189,-0.00000657,0.00000146,-0.00001661,-0.0000140
 3,-0.00000521,0.00003115,0.00000954,0.00000818,-0.00002339,-0.00000167
 ,-0.00000003,-0.00000765,-0.00000029,-0.00000498,0.01007045,-0.0208690
 1,0.00314531,-0.00912128,0.02196762,-0.00433998,0.09418943,-0.00011119
 ,0.00002786,-0.00001347,0.00039621,0.00038279,0.00008238,0.00004525,-0
 .00008830,0.00012934,-0.00016501,0.00003704,-0.00008676,0.00000392,-0.
 00006913,0.00003042,-0.00003057,-0.00000257,-0.00001756,0.00114817,0.0
 0133277,-0.00245345,0.00393467,-0.01287193,-0.00040790,-0.00086189,0.0
 0068139,0.00069850,-0.00008371,0.00003564,-0.00013694,-0.00010382,-0.0
 0061876,0.00024551,-0.00012316,0.00009802,-0.00000552,-0.00001144,0.00
 007163,0.00003212,0.00046692,0.00026348,-0.00044020,-0.00001074,0.0000
 5827,0.00000206,-0.00000981,-0.00000399,-0.00001349,0.00008857,-0.0000
 1488,-0.00011480,0.00015648,0.00008881,-0.00017383,0.00021674,0.000007
 50,0.00002397,-0.00028669,0.00015751,0.00006607,0.00010437,-0.00015893
 ,-0.00003641,0.00000426,0.00000391,0.00000274,-0.00001189,-0.00000849,
 -0.00000656,-0.00000945,0.00003379,-0.00000091,0.09856789,-0.26830097,
 0.03976417,0.00021399,-0.00009601,0.00007905,0.00004164,-0.00005765,-0
 .00005731,-0.00000365,-0.00001735,-0.00000261,0.00000118,-0.00001373,0
 .00000021,-0.00001614,-0.00005269,-0.00000859,0.00004222,0.00003503,0.
 00001311,-0.00003585,-0.00000717,-0.00000313,-0.00001241,-0.00000505,-
 0.00000675,0.00788123,-0.01458174,0.00265965,-0.00235244,0.00367952,-0
 .00042669,-0.10907386,0.28997439,-0.00015576,-0.00016506,-0.00000281,0
 .00034867,0.00019408,0.00002606,-0.00001781,-0.00002565,0.00000676,-0.
 00005850,-0.00003033,-0.00000788,-0.00003804,0.00001496,-0.00004062,0.
 00004215,-0.00001874,0.00005263,0.00263502,-0.00045148,-0.00489993,0.0
 1313522,-0.03372948,0.00183069,0.00025155,-0.00122526,0.00160823,-0.00
 039897,-0.00025139,0.00029503,0.00049262,-0.00150730,-0.00000631,0.000
 01578,0.00001235,-0.00000706,0.00001076,-0.00001077,-0.00001343,-0.000
 14821,0.00045593,-0.00018572,-0.00004437,0.00007998,0.00001262,-0.0000
 1110,0.00002002,-0.00001782,0.00017836,-0.00008234,-0.00019046,0.00034
 053,-0.00007079,-0.00024281,0.00000397,0.00030606,-0.00033502,0.000389
 11,-0.00022551,0.00011155,0.00004347,-0.00000070,0.00001889,0.00000008
 ,-0.00000045,-0.00000338,-0.00000719,-0.00001323,-0.00000999,0.0000126
 7,0.00000541,-0.00001886,-0.02114307,0.04875837,-0.05625897,0.00000131
 ,-0.00001753,0.00000264,-0.00001936,0.00000325,0.00001133,-0.00000596,
 -0.00000724,0.00000007,-0.00000062,0.00000162,0.00000188,-0.00000467,0
 .00001189,0.00000732,0.00000071,-0.00000735,-0.00001479,0.00000831,0.0
 0000360,0.00001004,-0.00000218,0.00000004,0.00000535,-0.00596211,0.009
 70599,-0.00200714,-0.00656115,0.01768348,-0.00251308,0.01666876,-0.039
 41644,0.06277497\\0.00000001,0.00000001,-0.00000025,-0.00000011,0.,-0.
 00000024,0.00000010,-0.00000029,0.00000064,0.00000037,0.00000254,0.000
 00033,-0.00000033,-0.00000039,0.00000001,-0.00000004,-0.00000010,-0.00
 000032,0.,-0.00000018,0.00000025,-0.00000007,-0.00000055,0.00000050,0.
 00000020,-0.00000004,0.00000088,-0.00000020,0.00000033,0.00000025,0.00
 000022,0.00000006,0.00000060,0.00000081,0.00000054,-0.00000489,0.00000
 434,0.00000464,-0.00000075,0.00000011,0.00000014,0.00000045,0.00000005
 ,0.00000031,0.00000081,0.00000012,0.00000029,0.00000019,0.00000015,0.0
 0000008,0.00000048,0.00000026,0.00000040,0.00000039,0.00000003,0.00000
 022,0.00000076,-0.00000045,0.,0.00000042,0.00000043,0.00000027,-0.0000
 0009,-0.00000011,0.00000007,-0.00000085,0.00000003,-0.00000006,-0.0000
 0043,-0.00000013,-0.00000007,0.00000018,-0.00000016,-0.00000021,0.0000
 0003,-0.00000025,-0.00000158,0.00000087,-0.00000004,-0.00000450,0.0000
 0111,-0.00000096,0.00000100,0.00000021,0.00000050,0.00000002,-0.000001
 57,-0.00000517,-0.00000295,-0.00000109,0.00000100,0.00000016,0.0000017
 0,-0.00000045,0.00000084,-0.00000101,0.00000041,-0.00000045,-0.0000007
 2,-0.00000035,-0.00000032,0.00000018,-0.00000002,-0.00000018,0.0000005
 7,-0.00000031,-0.00000005,0.00000041\\\@


 A COMPLEXITY IS MERELY A DISARRANGEMENT OF SIMPLICITIES.

                                    -- G. O. ABELL IN "EXPLORATION OF THE UNIVERSE"
 Job cpu time:       0 days 18 hours 50 minutes 25.2 seconds.
 Elapsed time:       0 days  0 hours 40 minutes 24.4 seconds.
 File lengths (MBytes):  RWF=   1060 Int=      0 D2E=      0 Chk=     28 Scr=      8
 Normal termination of Gaussian 16 at Mon Nov 15 12:11:23 2021.
