 Entering Gaussian System, Link 0=g16
 Input=Nic5h3bMidATS2_3.gjf
 Output=Nic5h3bMidATS2_3.log
 Initial command:
 /sw/contrib/gaussian/g16/A03/g16/l1.exe "/gscratch/scrubbed/gds001/Gau-5354.inp" -scrdir="/gscratch/scrubbed/gds001/"
 Entering Link 1 = /sw/contrib/gaussian/g16/A03/g16/l1.exe PID=      5356.
  
 Copyright (c) 1988,1990,1992,1993,1995,1998,2003,2009,2016,
            Gaussian, Inc.  All Rights Reserved.
  
 This is part of the Gaussian(R) 16 program.  It is based on
 the Gaussian(R) 09 system (copyright 2009, Gaussian, Inc.),
 the Gaussian(R) 03 system (copyright 2003, Gaussian, Inc.),
 the Gaussian(R) 98 system (copyright 1998, Gaussian, Inc.),
 the Gaussian(R) 94 system (copyright 1995, Gaussian, Inc.),
 the Gaussian 92(TM) system (copyright 1992, Gaussian, Inc.),
 the Gaussian 90(TM) system (copyright 1990, Gaussian, Inc.),
 the Gaussian 88(TM) system (copyright 1988, Gaussian, Inc.),
 the Gaussian 86(TM) system (copyright 1986, Carnegie Mellon
 University), and the Gaussian 82(TM) system (copyright 1983,
 Carnegie Mellon University). Gaussian is a federally registered
 trademark of Gaussian, Inc.
  
 This software contains proprietary and confidential information,
 including trade secrets, belonging to Gaussian, Inc.
  
 This software is provided under written license and may be
 used, copied, transmitted, or stored only in accord with that
 written license.
  
 The following legend is applicable only to US Government
 contracts under FAR:
  
                    RESTRICTED RIGHTS LEGEND
  
 Use, reproduction and disclosure by the US Government is
 subject to restrictions as set forth in subparagraphs (a)
 and (c) of the Commercial Computer Software - Restricted
 Rights clause in FAR 52.227-19.
  
 Gaussian, Inc.
 340 Quinnipiac St., Bldg. 40, Wallingford CT 06492
  
  
 ---------------------------------------------------------------
 Warning -- This program may not be used in any manner that
 competes with the business of Gaussian, Inc. or will provide
 assistance to any competitor of Gaussian, Inc.  The licensee
 of this program is prohibited from giving any competitor of
 Gaussian, Inc. access to this program.  By using this program,
 the user acknowledges that Gaussian, Inc. is engaged in the
 business of creating and licensing software in the field of
 computational chemistry and represents and warrants to the
 licensee that it is not a competitor of Gaussian, Inc. and that
 it will not use this program in any manner prohibited above.
 ---------------------------------------------------------------
  

 Cite this work as:
 Gaussian 16, Revision A.03,
 M. J. Frisch, G. W. Trucks, H. B. Schlegel, G. E. Scuseria, 
 M. A. Robb, J. R. Cheeseman, G. Scalmani, V. Barone, 
 G. A. Petersson, H. Nakatsuji, X. Li, M. Caricato, A. V. Marenich, 
 J. Bloino, B. G. Janesko, R. Gomperts, B. Mennucci, H. P. Hratchian, 
 J. V. Ortiz, A. F. Izmaylov, J. L. Sonnenberg, D. Williams-Young, 
 F. Ding, F. Lipparini, F. Egidi, J. Goings, B. Peng, A. Petrone, 
 T. Henderson, D. Ranasinghe, V. G. Zakrzewski, J. Gao, N. Rega, 
 G. Zheng, W. Liang, M. Hada, M. Ehara, K. Toyota, R. Fukuda, 
 J. Hasegawa, M. Ishida, T. Nakajima, Y. Honda, O. Kitao, H. Nakai, 
 T. Vreven, K. Throssell, J. A. Montgomery, Jr., J. E. Peralta, 
 F. Ogliaro, M. J. Bearpark, J. J. Heyd, E. N. Brothers, K. N. Kudin, 
 V. N. Staroverov, T. A. Keith, R. Kobayashi, J. Normand, 
 K. Raghavachari, A. P. Rendell, J. C. Burant, S. S. Iyengar, 
 J. Tomasi, M. Cossi, J. M. Millam, M. Klene, C. Adamo, R. Cammi, 
 J. W. Ochterski, R. L. Martin, K. Morokuma, O. Farkas, 
 J. B. Foresman, and D. J. Fox, Gaussian, Inc., Wallingford CT, 2016.
 
 ******************************************
 Gaussian 16:  ES64L-G16RevA.03 25-Dec-2016
                26-Apr-2023 
 ******************************************
 %nprocshared=28
 Will use up to   28 processors via shared memory.
 %mem=41GB
 ----------------------------------------------------------------
 # wB97XD/aug-cc-pVDZ opt=(TS,CalcAll,MaxStep=5,NoEigenTest) freq
 ----------------------------------------------------------------
 1/5=1,8=5,10=4,11=1,18=20,26=3,38=1/1,3;
 2/9=110,12=2,17=6,18=5,40=1/2;
 3/5=16,7=10,11=2,25=1,30=1,71=2,74=-58,140=1/1,2,3;
 4//1;
 5/5=2,38=5/2;
 8/6=4,10=90,11=11/1;
 11/6=1,8=1,9=11,15=111,16=1/1,2,10;
 10/6=1/2;
 6/7=2,8=2,9=2,10=2,18=1,28=1/1;
 7/10=1,25=1/1,2,3,16;
 1/5=1,8=5,10=4,11=1,18=20,26=3/3(3);
 2/9=110/2;
 7/8=1,9=1,25=1,44=-1/16;
 99//99;
 2/9=110/2;
 3/5=16,7=10,11=2,25=1,30=1,71=2,74=-58,140=1/1,2,3;
 4/5=5,16=3,69=1/1;
 5/5=2,38=5/2;
 8/6=4,10=90,11=11/1;
 11/6=1,8=1,9=11,15=111,16=1/1,2,10;
 10/6=1/2;
 7/10=1,25=1/1,2,3,16;
 1/5=1,8=5,10=4,11=1,18=20,26=3/3(-8);
 2/9=110/2;
 6/7=2,8=2,9=2,10=2,18=1,19=2,28=1/1;
 7/8=1,9=1,25=1,44=-1/16;
 99//99;
 ----
 blah
 ----
 Symbolic Z-matrix:
 Charge =  1 Multiplicity = 1
 N                    -1.53882   1.03332  -1.06743 
 C                    -1.99733   2.08728  -0.38264 
 C                    -1.18165   2.84719   0.44744 
 C                     0.15218   2.47694   0.58931 
 C                     0.64312   1.37699  -0.11427 
 C                    -0.25159   0.70102  -0.94279 
 C                     2.07256   0.91979   0.0388 
 C                     2.89789   0.78641  -1.24938 
 C                     3.97121  -0.27816  -0.91565 
 C                     3.61461  -0.76407   0.49696 
 N                     2.18164  -0.43394   0.64484 
 C                     1.70244  -0.50095   2.02755 
 H                    -3.05576   2.31707  -0.49846 
 H                    -1.58946   3.70281   0.98176 
 H                     0.81072   3.04243   1.24983 
 H                     0.07381  -0.1595   -1.52798 
 H                     2.58197   1.62369   0.72006 
 H                     3.32572   1.75217  -1.53563 
 H                     2.26131   0.45324  -2.07675 
 H                     4.98526   0.13227  -0.94162 
 H                     3.93393  -1.1034   -1.63487 
 H                     4.19312  -0.22567   1.2644 
 H                     3.76738  -1.83901   0.65161 
 H                     2.24431   0.21085   2.66944 
 H                     1.85922  -1.51477   2.41353 
 H                     0.63042  -0.27341   2.05663 
 O                    -3.0081   -1.07187  -1.73442 
 O                     0.93295  -2.22294  -0.61839 
 O                    -1.41263  -2.46458  -0.1351 
 H                    -3.28033  -1.22995  -2.64187 
 H                     1.42545  -3.04733  -0.64006 
 H                    -1.64428  -1.9772    0.70983 
 H                    -2.51834  -0.19673  -1.6945 
 H                    -1.98943  -2.07478  -0.84289 
 H                    -0.30721  -2.36738  -0.36459 
 H                     1.49054  -1.42342  -0.0708 
 O                    -2.08518  -0.9883    1.90253 
 H                    -2.92973  -0.60506   1.57434 
 H                    -2.2811   -1.36574   2.76413 
 O                    -4.28496  -0.14165   0.57169 
 H                    -5.20522  -0.27561   0.81095 
 H                    -4.1593   -0.55112  -0.30096 
 
 Add virtual bond connecting atoms H35        and O28        Dist= 2.41D+00.
 Add virtual bond connecting atoms H36        and N11        Dist= 2.65D+00.
 Add virtual bond connecting atoms O37        and H32        Dist= 3.04D+00.
 Add virtual bond connecting atoms N1         and H33        Dist= 3.20D+00.
 Add virtual bond connecting atoms H34        and O27        Dist= 3.18D+00.
 Add virtual bond connecting atoms O40        and H38        Dist= 3.30D+00.

 GradGradGradGradGradGradGradGradGradGradGradGradGradGradGradGradGradGrad
 Berny optimization.
 Initialization pass.
                           ----------------------------
                           !    Initial Parameters    !
                           ! (Angstroms and Degrees)  !
 --------------------------                            --------------------------
 ! Name  Definition              Value          Derivative Info.                !
 --------------------------------------------------------------------------------
 ! R1    R(1,2)                  1.3379         calculate D2E/DX2 analytically  !
 ! R2    R(1,6)                  1.3353         calculate D2E/DX2 analytically  !
 ! R3    R(1,33)                 1.6928         calculate D2E/DX2 analytically  !
 ! R4    R(2,3)                  1.3899         calculate D2E/DX2 analytically  !
 ! R5    R(2,13)                 1.0893         calculate D2E/DX2 analytically  !
 ! R6    R(3,4)                  1.3915         calculate D2E/DX2 analytically  !
 ! R7    R(3,14)                 1.0881         calculate D2E/DX2 analytically  !
 ! R8    R(4,5)                  1.395          calculate D2E/DX2 analytically  !
 ! R9    R(4,15)                 1.0908         calculate D2E/DX2 analytically  !
 ! R10   R(5,6)                  1.3942         calculate D2E/DX2 analytically  !
 ! R11   R(5,7)                  1.5086         calculate D2E/DX2 analytically  !
 ! R12   R(6,16)                 1.0903         calculate D2E/DX2 analytically  !
 ! R13   R(7,8)                  1.5357         calculate D2E/DX2 analytically  !
 ! R14   R(7,11)                 1.4872         calculate D2E/DX2 analytically  !
 ! R15   R(7,17)                 1.1041         calculate D2E/DX2 analytically  !
 ! R16   R(8,9)                  1.5481         calculate D2E/DX2 analytically  !
 ! R17   R(8,18)                 1.0944         calculate D2E/DX2 analytically  !
 ! R18   R(8,19)                 1.0958         calculate D2E/DX2 analytically  !
 ! R19   R(9,10)                 1.5358         calculate D2E/DX2 analytically  !
 ! R20   R(9,20)                 1.0943         calculate D2E/DX2 analytically  !
 ! R21   R(9,21)                 1.0953         calculate D2E/DX2 analytically  !
 ! R22   R(10,11)                1.4779         calculate D2E/DX2 analytically  !
 ! R23   R(10,22)                1.1016         calculate D2E/DX2 analytically  !
 ! R24   R(10,23)                1.0967         calculate D2E/DX2 analytically  !
 ! R25   R(11,12)                1.4649         calculate D2E/DX2 analytically  !
 ! R26   R(11,36)                1.4031         calculate D2E/DX2 analytically  !
 ! R27   R(12,24)                1.101          calculate D2E/DX2 analytically  !
 ! R28   R(12,25)                1.0961         calculate D2E/DX2 analytically  !
 ! R29   R(12,26)                1.0963         calculate D2E/DX2 analytically  !
 ! R30   R(27,30)                0.9605         calculate D2E/DX2 analytically  !
 ! R31   R(27,33)                1.0037         calculate D2E/DX2 analytically  !
 ! R32   R(27,34)                1.6847         calculate D2E/DX2 analytically  !
 ! R33   R(28,31)                0.9605         calculate D2E/DX2 analytically  !
 ! R34   R(28,35)                1.2741         calculate D2E/DX2 analytically  !
 ! R35   R(28,36)                1.118          calculate D2E/DX2 analytically  !
 ! R36   R(29,32)                1.0025         calculate D2E/DX2 analytically  !
 ! R37   R(29,34)                0.9928         calculate D2E/DX2 analytically  !
 ! R38   R(29,35)                1.1332         calculate D2E/DX2 analytically  !
 ! R39   R(32,37)                1.6109         calculate D2E/DX2 analytically  !
 ! R40   R(37,38)                0.9838         calculate D2E/DX2 analytically  !
 ! R41   R(37,39)                0.9608         calculate D2E/DX2 analytically  !
 ! R42   R(38,40)                1.7483         calculate D2E/DX2 analytically  !
 ! R43   R(40,41)                0.9602         calculate D2E/DX2 analytically  !
 ! R44   R(40,42)                0.9721         calculate D2E/DX2 analytically  !
 ! A1    A(2,1,6)              118.5974         calculate D2E/DX2 analytically  !
 ! A2    A(2,1,33)             124.3125         calculate D2E/DX2 analytically  !
 ! A3    A(6,1,33)             114.3026         calculate D2E/DX2 analytically  !
 ! A4    A(1,2,3)              122.3613         calculate D2E/DX2 analytically  !
 ! A5    A(1,2,13)             116.4088         calculate D2E/DX2 analytically  !
 ! A6    A(3,2,13)             121.2258         calculate D2E/DX2 analytically  !
 ! A7    A(2,3,4)              118.5514         calculate D2E/DX2 analytically  !
 ! A8    A(2,3,14)             120.2158         calculate D2E/DX2 analytically  !
 ! A9    A(4,3,14)             121.2271         calculate D2E/DX2 analytically  !
 ! A10   A(3,4,5)              119.7178         calculate D2E/DX2 analytically  !
 ! A11   A(3,4,15)             120.1664         calculate D2E/DX2 analytically  !
 ! A12   A(5,4,15)             120.1156         calculate D2E/DX2 analytically  !
 ! A13   A(4,5,6)              117.1408         calculate D2E/DX2 analytically  !
 ! A14   A(4,5,7)              121.4177         calculate D2E/DX2 analytically  !
 ! A15   A(6,5,7)              121.4275         calculate D2E/DX2 analytically  !
 ! A16   A(1,6,5)              123.6037         calculate D2E/DX2 analytically  !
 ! A17   A(1,6,16)             115.7228         calculate D2E/DX2 analytically  !
 ! A18   A(5,6,16)             120.6685         calculate D2E/DX2 analytically  !
 ! A19   A(5,7,8)              116.7724         calculate D2E/DX2 analytically  !
 ! A20   A(5,7,11)             112.7501         calculate D2E/DX2 analytically  !
 ! A21   A(5,7,17)             107.8523         calculate D2E/DX2 analytically  !
 ! A22   A(8,7,11)             102.9059         calculate D2E/DX2 analytically  !
 ! A23   A(8,7,17)             108.9648         calculate D2E/DX2 analytically  !
 ! A24   A(11,7,17)            107.1595         calculate D2E/DX2 analytically  !
 ! A25   A(7,8,9)              104.5663         calculate D2E/DX2 analytically  !
 ! A26   A(7,8,18)             110.6624         calculate D2E/DX2 analytically  !
 ! A27   A(7,8,19)             110.3379         calculate D2E/DX2 analytically  !
 ! A28   A(9,8,18)             113.09           calculate D2E/DX2 analytically  !
 ! A29   A(9,8,19)             110.8818         calculate D2E/DX2 analytically  !
 ! A30   A(18,8,19)            107.3328         calculate D2E/DX2 analytically  !
 ! A31   A(8,9,10)             104.7649         calculate D2E/DX2 analytically  !
 ! A32   A(8,9,20)             112.2994         calculate D2E/DX2 analytically  !
 ! A33   A(8,9,21)             110.6679         calculate D2E/DX2 analytically  !
 ! A34   A(10,9,20)            110.8338         calculate D2E/DX2 analytically  !
 ! A35   A(10,9,21)            110.9582         calculate D2E/DX2 analytically  !
 ! A36   A(20,9,21)            107.3709         calculate D2E/DX2 analytically  !
 ! A37   A(9,10,11)            104.2701         calculate D2E/DX2 analytically  !
 ! A38   A(9,10,22)            111.3591         calculate D2E/DX2 analytically  !
 ! A39   A(9,10,23)            114.0459         calculate D2E/DX2 analytically  !
 ! A40   A(11,10,22)           109.2873         calculate D2E/DX2 analytically  !
 ! A41   A(11,10,23)           109.8698         calculate D2E/DX2 analytically  !
 ! A42   A(22,10,23)           107.9176         calculate D2E/DX2 analytically  !
 ! A43   A(7,11,10)            103.5125         calculate D2E/DX2 analytically  !
 ! A44   A(7,11,12)            113.7206         calculate D2E/DX2 analytically  !
 ! A45   A(7,11,36)            113.4493         calculate D2E/DX2 analytically  !
 ! A46   A(10,11,12)           113.6656         calculate D2E/DX2 analytically  !
 ! A47   A(10,11,36)           105.6049         calculate D2E/DX2 analytically  !
 ! A48   A(12,11,36)           106.7399         calculate D2E/DX2 analytically  !
 ! A49   A(11,12,24)           111.0819         calculate D2E/DX2 analytically  !
 ! A50   A(11,12,25)           109.1415         calculate D2E/DX2 analytically  !
 ! A51   A(11,12,26)           109.5981         calculate D2E/DX2 analytically  !
 ! A52   A(24,12,25)           108.8003         calculate D2E/DX2 analytically  !
 ! A53   A(24,12,26)           109.3658         calculate D2E/DX2 analytically  !
 ! A54   A(25,12,26)           108.8149         calculate D2E/DX2 analytically  !
 ! A55   A(30,27,33)           108.6262         calculate D2E/DX2 analytically  !
 ! A56   A(30,27,34)           124.9841         calculate D2E/DX2 analytically  !
 ! A57   A(33,27,34)           101.71           calculate D2E/DX2 analytically  !
 ! A58   A(31,28,35)           113.9709         calculate D2E/DX2 analytically  !
 ! A59   A(31,28,36)           111.6592         calculate D2E/DX2 analytically  !
 ! A60   A(35,28,36)           117.9662         calculate D2E/DX2 analytically  !
 ! A61   A(32,29,34)           106.0057         calculate D2E/DX2 analytically  !
 ! A62   A(32,29,35)           110.7558         calculate D2E/DX2 analytically  !
 ! A63   A(34,29,35)           112.8737         calculate D2E/DX2 analytically  !
 ! A64   A(1,33,27)            158.5391         calculate D2E/DX2 analytically  !
 ! A65   A(27,34,29)           164.2174         calculate D2E/DX2 analytically  !
 ! A66   A(32,37,38)           103.1269         calculate D2E/DX2 analytically  !
 ! A67   A(32,37,39)           118.594          calculate D2E/DX2 analytically  !
 ! A68   A(38,37,39)           106.089          calculate D2E/DX2 analytically  !
 ! A69   A(37,38,40)           163.7415         calculate D2E/DX2 analytically  !
 ! A70   A(38,40,41)           124.2643         calculate D2E/DX2 analytically  !
 ! A71   A(38,40,42)           107.6355         calculate D2E/DX2 analytically  !
 ! A72   A(41,40,42)           106.7856         calculate D2E/DX2 analytically  !
 ! A73   L(29,32,37,1,-1)      170.7641         calculate D2E/DX2 analytically  !
 ! A74   L(28,35,29,1,-1)      178.5072         calculate D2E/DX2 analytically  !
 ! A75   L(11,36,28,1,-1)      180.3679         calculate D2E/DX2 analytically  !
 ! A76   L(29,32,37,1,-2)      177.012          calculate D2E/DX2 analytically  !
 ! A77   L(28,35,29,1,-2)      180.579          calculate D2E/DX2 analytically  !
 ! A78   L(11,36,28,1,-2)      181.2906         calculate D2E/DX2 analytically  !
 ! D1    D(6,1,2,3)              0.198          calculate D2E/DX2 analytically  !
 ! D2    D(6,1,2,13)          -179.0745         calculate D2E/DX2 analytically  !
 ! D3    D(33,1,2,3)           160.175          calculate D2E/DX2 analytically  !
 ! D4    D(33,1,2,13)          -19.0975         calculate D2E/DX2 analytically  !
 ! D5    D(2,1,6,5)              1.3272         calculate D2E/DX2 analytically  !
 ! D6    D(2,1,6,16)          -179.4851         calculate D2E/DX2 analytically  !
 ! D7    D(33,1,6,5)          -160.5949         calculate D2E/DX2 analytically  !
 ! D8    D(33,1,6,16)           18.5929         calculate D2E/DX2 analytically  !
 ! D9    D(2,1,33,27)          -92.9202         calculate D2E/DX2 analytically  !
 ! D10   D(6,1,33,27)           67.8198         calculate D2E/DX2 analytically  !
 ! D11   D(1,2,3,4)             -1.3823         calculate D2E/DX2 analytically  !
 ! D12   D(1,2,3,14)           179.4769         calculate D2E/DX2 analytically  !
 ! D13   D(13,2,3,4)           177.8558         calculate D2E/DX2 analytically  !
 ! D14   D(13,2,3,14)           -1.285          calculate D2E/DX2 analytically  !
 ! D15   D(2,3,4,5)              1.083          calculate D2E/DX2 analytically  !
 ! D16   D(2,3,4,15)          -178.7504         calculate D2E/DX2 analytically  !
 ! D17   D(14,3,4,5)          -179.7852         calculate D2E/DX2 analytically  !
 ! D18   D(14,3,4,15)            0.3813         calculate D2E/DX2 analytically  !
 ! D19   D(3,4,5,6)              0.296          calculate D2E/DX2 analytically  !
 ! D20   D(3,4,5,7)           -178.3576         calculate D2E/DX2 analytically  !
 ! D21   D(15,4,5,6)          -179.8705         calculate D2E/DX2 analytically  !
 ! D22   D(15,4,5,7)             1.476          calculate D2E/DX2 analytically  !
 ! D23   D(4,5,6,1)             -1.5633         calculate D2E/DX2 analytically  !
 ! D24   D(4,5,6,16)           179.2875         calculate D2E/DX2 analytically  !
 ! D25   D(7,5,6,1)            177.0901         calculate D2E/DX2 analytically  !
 ! D26   D(7,5,6,16)            -2.0591         calculate D2E/DX2 analytically  !
 ! D27   D(4,5,7,8)           -125.8196         calculate D2E/DX2 analytically  !
 ! D28   D(4,5,7,11)           115.3092         calculate D2E/DX2 analytically  !
 ! D29   D(4,5,7,17)            -2.8006         calculate D2E/DX2 analytically  !
 ! D30   D(6,5,7,8)             55.5847         calculate D2E/DX2 analytically  !
 ! D31   D(6,5,7,11)           -63.2865         calculate D2E/DX2 analytically  !
 ! D32   D(6,5,7,17)           178.6036         calculate D2E/DX2 analytically  !
 ! D33   D(5,7,8,9)           -153.5913         calculate D2E/DX2 analytically  !
 ! D34   D(5,7,8,18)            84.3322         calculate D2E/DX2 analytically  !
 ! D35   D(5,7,8,19)           -34.3111         calculate D2E/DX2 analytically  !
 ! D36   D(11,7,8,9)           -29.5369         calculate D2E/DX2 analytically  !
 ! D37   D(11,7,8,18)         -151.6135         calculate D2E/DX2 analytically  !
 ! D38   D(11,7,8,19)           89.7433         calculate D2E/DX2 analytically  !
 ! D39   D(17,7,8,9)            83.9658         calculate D2E/DX2 analytically  !
 ! D40   D(17,7,8,18)          -38.1107         calculate D2E/DX2 analytically  !
 ! D41   D(17,7,8,19)         -156.7539         calculate D2E/DX2 analytically  !
 ! D42   D(5,7,11,10)          171.1162         calculate D2E/DX2 analytically  !
 ! D43   D(5,7,11,12)          -65.069          calculate D2E/DX2 analytically  !
 ! D44   D(5,7,11,36)           57.1747         calculate D2E/DX2 analytically  !
 ! D45   D(8,7,11,10)           44.4469         calculate D2E/DX2 analytically  !
 ! D46   D(8,7,11,12)          168.2618         calculate D2E/DX2 analytically  !
 ! D47   D(8,7,11,36)          -69.4945         calculate D2E/DX2 analytically  !
 ! D48   D(17,7,11,10)         -70.3684         calculate D2E/DX2 analytically  !
 ! D49   D(17,7,11,12)          53.4465         calculate D2E/DX2 analytically  !
 ! D50   D(17,7,11,36)         175.6902         calculate D2E/DX2 analytically  !
 ! D51   D(7,8,9,10)             4.5594         calculate D2E/DX2 analytically  !
 ! D52   D(7,8,9,20)          -115.8133         calculate D2E/DX2 analytically  !
 ! D53   D(7,8,9,21)           124.2137         calculate D2E/DX2 analytically  !
 ! D54   D(18,8,9,10)          125.031          calculate D2E/DX2 analytically  !
 ! D55   D(18,8,9,20)            4.6584         calculate D2E/DX2 analytically  !
 ! D56   D(18,8,9,21)         -115.3147         calculate D2E/DX2 analytically  !
 ! D57   D(19,8,9,10)         -114.3533         calculate D2E/DX2 analytically  !
 ! D58   D(19,8,9,20)          125.274          calculate D2E/DX2 analytically  !
 ! D59   D(19,8,9,21)            5.301          calculate D2E/DX2 analytically  !
 ! D60   D(8,9,10,11)           22.2982         calculate D2E/DX2 analytically  !
 ! D61   D(8,9,10,22)          -95.4394         calculate D2E/DX2 analytically  !
 ! D62   D(8,9,10,23)          142.1339         calculate D2E/DX2 analytically  !
 ! D63   D(20,9,10,11)         143.6404         calculate D2E/DX2 analytically  !
 ! D64   D(20,9,10,22)          25.9029         calculate D2E/DX2 analytically  !
 ! D65   D(20,9,10,23)         -96.5238         calculate D2E/DX2 analytically  !
 ! D66   D(21,9,10,11)         -97.1616         calculate D2E/DX2 analytically  !
 ! D67   D(21,9,10,22)         145.1009         calculate D2E/DX2 analytically  !
 ! D68   D(21,9,10,23)          22.6742         calculate D2E/DX2 analytically  !
 ! D69   D(9,10,11,7)          -41.7188         calculate D2E/DX2 analytically  !
 ! D70   D(9,10,11,12)        -165.5697         calculate D2E/DX2 analytically  !
 ! D71   D(9,10,11,36)          77.7564         calculate D2E/DX2 analytically  !
 ! D72   D(22,10,11,7)          77.4353         calculate D2E/DX2 analytically  !
 ! D73   D(22,10,11,12)        -46.4156         calculate D2E/DX2 analytically  !
 ! D74   D(22,10,11,36)       -163.0895         calculate D2E/DX2 analytically  !
 ! D75   D(23,10,11,7)        -164.3326         calculate D2E/DX2 analytically  !
 ! D76   D(23,10,11,12)         71.8165         calculate D2E/DX2 analytically  !
 ! D77   D(23,10,11,36)        -44.8574         calculate D2E/DX2 analytically  !
 ! D78   D(7,11,12,24)         -57.4591         calculate D2E/DX2 analytically  !
 ! D79   D(7,11,12,25)        -177.4199         calculate D2E/DX2 analytically  !
 ! D80   D(7,11,12,26)          63.5047         calculate D2E/DX2 analytically  !
 ! D81   D(10,11,12,24)         60.6544         calculate D2E/DX2 analytically  !
 ! D82   D(10,11,12,25)        -59.3064         calculate D2E/DX2 analytically  !
 ! D83   D(10,11,12,26)       -178.3818         calculate D2E/DX2 analytically  !
 ! D84   D(36,11,12,24)        176.6635         calculate D2E/DX2 analytically  !
 ! D85   D(36,11,12,25)         56.7027         calculate D2E/DX2 analytically  !
 ! D86   D(36,11,12,26)        -62.3727         calculate D2E/DX2 analytically  !
 ! D87   D(7,11,28,31)         141.0093         calculate D2E/DX2 analytically  !
 ! D88   D(7,11,28,35)         -84.7157         calculate D2E/DX2 analytically  !
 ! D89   D(10,11,28,31)         28.008          calculate D2E/DX2 analytically  !
 ! D90   D(10,11,28,35)        162.2829         calculate D2E/DX2 analytically  !
 ! D91   D(12,11,28,31)        -93.0614         calculate D2E/DX2 analytically  !
 ! D92   D(12,11,28,35)         41.2135         calculate D2E/DX2 analytically  !
 ! D93   D(30,27,33,1)        -165.9306         calculate D2E/DX2 analytically  !
 ! D94   D(34,27,33,1)         -32.4776         calculate D2E/DX2 analytically  !
 ! D95   D(30,27,34,29)        174.6656         calculate D2E/DX2 analytically  !
 ! D96   D(33,27,34,29)         51.7663         calculate D2E/DX2 analytically  !
 ! D97   D(31,28,29,32)        118.7678         calculate D2E/DX2 analytically  !
 ! D98   D(31,28,29,34)       -123.1235         calculate D2E/DX2 analytically  !
 ! D99   D(36,28,29,32)        -15.2944         calculate D2E/DX2 analytically  !
 ! D100  D(36,28,29,34)        102.8142         calculate D2E/DX2 analytically  !
 ! D101  D(34,29,37,38)         17.2012         calculate D2E/DX2 analytically  !
 ! D102  D(34,29,37,39)        133.8493         calculate D2E/DX2 analytically  !
 ! D103  D(35,29,37,38)        137.0285         calculate D2E/DX2 analytically  !
 ! D104  D(35,29,37,39)       -106.3234         calculate D2E/DX2 analytically  !
 ! D105  D(32,29,34,27)         18.1306         calculate D2E/DX2 analytically  !
 ! D106  D(35,29,34,27)       -103.2794         calculate D2E/DX2 analytically  !
 ! D107  D(32,37,38,40)        -10.8739         calculate D2E/DX2 analytically  !
 ! D108  D(39,37,38,40)       -136.2357         calculate D2E/DX2 analytically  !
 ! D109  D(37,38,40,41)        128.7282         calculate D2E/DX2 analytically  !
 ! D110  D(37,38,40,42)          3.0498         calculate D2E/DX2 analytically  !
 ! D111  D(38,40,41,42)       -126.0426         calculate D2E/DX2 analytically  !
 --------------------------------------------------------------------------------
 Trust Radius=5.00D-02 FncErr=1.00D-07 GrdErr=1.00D-06 EigMax=2.50D+02 EigMin=1.00D-04
 Number of steps in this run=    243 maximum allowed number of steps=    252.
 Search for a saddle point of order  1.
 GradGradGradGradGradGradGradGradGradGradGradGradGradGradGradGradGradGrad

                          Input orientation:                          
 ---------------------------------------------------------------------
 Center     Atomic      Atomic             Coordinates (Angstroms)
 Number     Number       Type             X           Y           Z
 ---------------------------------------------------------------------
      1          7           0       -1.538820    1.033319   -1.067426
      2          6           0       -1.997331    2.087279   -0.382638
      3          6           0       -1.181647    2.847193    0.447437
      4          6           0        0.152182    2.476936    0.589312
      5          6           0        0.643117    1.376989   -0.114266
      6          6           0       -0.251588    0.701015   -0.942786
      7          6           0        2.072565    0.919788    0.038803
      8          6           0        2.897885    0.786410   -1.249378
      9          6           0        3.971213   -0.278163   -0.915654
     10          6           0        3.614614   -0.764065    0.496956
     11          7           0        2.181640   -0.433943    0.644842
     12          6           0        1.702439   -0.500951    2.027549
     13          1           0       -3.055759    2.317073   -0.498459
     14          1           0       -1.589455    3.702814    0.981758
     15          1           0        0.810722    3.042425    1.249834
     16          1           0        0.073810   -0.159504   -1.527979
     17          1           0        2.581974    1.623691    0.720064
     18          1           0        3.325719    1.752171   -1.535628
     19          1           0        2.261313    0.453240   -2.076753
     20          1           0        4.985263    0.132266   -0.941620
     21          1           0        3.933929   -1.103404   -1.634873
     22          1           0        4.193124   -0.225670    1.264396
     23          1           0        3.767380   -1.839010    0.651614
     24          1           0        2.244308    0.210848    2.669436
     25          1           0        1.859217   -1.514765    2.413527
     26          1           0        0.630423   -0.273405    2.056631
     27          8           0       -3.008102   -1.071872   -1.734421
     28          8           0        0.932950   -2.222940   -0.618393
     29          8           0       -1.412633   -2.464579   -0.135095
     30          1           0       -3.280331   -1.229952   -2.641868
     31          1           0        1.425446   -3.047326   -0.640062
     32          1           0       -1.644283   -1.977197    0.709833
     33          1           0       -2.518338   -0.196733   -1.694498
     34          1           0       -1.989432   -2.074779   -0.842893
     35          1           0       -0.307207   -2.367381   -0.364587
     36          1           0        1.490544   -1.423420   -0.070796
     37          8           0       -2.085184   -0.988297    1.902532
     38          1           0       -2.929734   -0.605058    1.574337
     39          1           0       -2.281103   -1.365738    2.764133
     40          8           0       -4.284962   -0.141647    0.571693
     41          1           0       -5.205224   -0.275607    0.810946
     42          1           0       -4.159299   -0.551122   -0.300956
 ---------------------------------------------------------------------
                    Distance matrix (angstroms):
                    1          2          3          4          5
     1  N    0.000000
     2  C    1.337908   0.000000
     3  C    2.390088   1.389904   0.000000
     4  C    2.772778   2.391009   1.391517   0.000000
     5  C    2.405717   2.747454   2.409725   1.394963   0.000000
     6  C    1.335263   2.298502   2.720994   2.379968   1.394232
     7  C    3.778721   4.254962   3.804178   2.532912   1.508570
     8  C    4.447294   5.138739   4.875304   3.711811   2.592536
     9  C    5.665994   6.442278   6.178821   4.943732   3.802364
    10  C    5.677655   6.355924   6.003978   4.743527   3.713152
    11  N    4.350465   4.987592   4.702821   3.548943   2.494549
    12  C    4.736941   5.118226   4.693056   3.652346   3.039111
    13  H    2.067088   1.089261   2.165189   3.391119   3.835759
    14  H    3.365698   2.153577   1.088069   2.165662   3.405159
    15  H    3.863489   3.385621   2.156731   1.090753   2.159291
    16  H    2.058036   3.263352   3.810337   3.382289   2.164141
    17  H    4.530409   4.732959   3.966879   2.578568   2.125120
    18  H    4.939605   5.456789   5.044598   3.887414   3.058984
    19  H    3.974449   4.865815   4.894540   3.956221   2.706146
    20  H    6.587214   7.272631   6.879759   5.585687   4.592176
    21  H    5.902420   6.850430   6.790607   5.662812   4.392498
    22  H    6.314874   6.810594   6.244844   4.908058   4.131800
    23  H    6.273845   7.051051   6.818728   5.630358   4.548653
    24  H    5.380767   5.552265   4.860531   3.720089   3.416532
    25  H    5.491486   5.972120   5.669131   4.709077   4.028756
    26  H    4.021551   4.292779   3.951106   3.153746   2.727041
    27  O    2.652452   3.581789   4.843089   5.289723   4.685427
    28  O    4.112724   5.217290   5.595870   4.914976   3.646592
    29  O    3.622217   4.595929   5.348609   5.233735   4.357085
    30  H    3.261000   4.213577   5.529140   5.996973   5.345873
    31  H    5.061737   6.176232   6.536432   5.800865   4.523612
    32  H    3.497568   4.223518   4.853620   4.804281   4.142693
    33  H    1.692839   2.684983   3.954758   4.415424   3.868919
    34  H    3.148609   4.187436   5.152017   5.230280   4.401808
    35  H    3.684510   4.764540   5.349375   4.958666   3.871186
    36  H    4.025653   4.958581   5.064317   4.176091   2.926143
    37  O    3.634019   3.832608   4.200555   4.328763   4.135901
    38  H    3.405559   3.456560   4.030353   4.468464   4.420990
    39  H    4.581190   4.680387   4.932005   5.041514   4.935463
    40  O    3.407133   3.333484   4.310356   5.152236   5.202188
    41  H    4.322509   4.159141   5.106191   6.027223   6.147372
    42  H    3.156713   3.412028   4.579852   5.343274   5.178384
                    6          7          8          9         10
     6  C    0.000000
     7  C    2.532403   0.000000
     8  C    3.165513   1.535693   0.000000
     9  C    4.334925   2.439455   1.548134   0.000000
    10  C    4.377994   2.328772   2.442817   1.535816   0.000000
    11  N    3.119181   1.487201   2.364390   2.379493   1.477926
    12  C    3.753110   2.471963   3.718150   3.722823   2.463404
    13  H    3.266871   5.342356   6.192955   7.502509   7.414724
    14  H    3.808485   4.695188   5.798241   7.097139   6.875345
    15  H    3.379095   2.750351   3.961302   5.069945   4.787275
    16  H    1.090334   2.759474   2.991283   3.946995   4.123487
    17  H    3.412547   1.104126   2.163225   2.867509   2.611035
    18  H    3.775383   2.177634   1.094384   2.218848   3.247507
    19  H    2.768022   2.174597   1.095799   2.192455   3.152338
    20  H    5.267645   3.172575   2.209019   1.094269   2.179814
    21  H    4.610148   3.218567   2.189381   1.095303   2.182157
    22  H    5.048352   2.703872   3.003500   2.191944   1.101593
    23  H    5.014573   3.295285   3.355983   2.221288   1.096706
    24  H    4.417908   2.729894   4.014416   4.009265   2.747337
    25  H    4.542028   3.407621   4.448720   4.131968   2.705220
    26  H    3.274743   2.752292   4.146599   4.471619   3.402753
    27  O    3.371674   5.737962   6.210407   7.071859   6.995295
    28  O    3.171415   3.406959   3.649013   3.619608   3.250176
    29  O    3.467186   4.861151   5.512814   5.863061   5.344572
    30  H    3.973512   6.360886   6.646435   7.514693   7.590094
    31  H    4.117541   4.076471   4.151731   3.771624   3.361331
    32  H    3.441449   4.760017   5.666332   6.087916   5.401204
    33  H    2.551309   5.032628   5.522696   6.536628   6.537388
    34  H    3.276448   5.122952   5.677808   6.225947   5.909188
    35  H    3.122893   4.078176   4.582779   4.793056   4.323605
    36  H    2.882467   2.416896   2.872806   2.859916   2.295379
    37  O    3.783079   4.939752   6.157524   6.717619   5.874829
    38  H    3.900539   5.450322   6.623496   7.343704   6.634344
    39  H    4.704429   5.621875   6.896516   7.335878   6.345201
    40  O    4.389969   6.467516   7.467990   8.390189   7.924411
    41  H    5.344893   7.415618   8.428119   9.337460   8.838932
    42  H    4.153312   6.412109   7.245160   8.158283   7.817655
                   11         12         13         14         15
    11  N    0.000000
    12  C    1.464924   0.000000
    13  H    6.025411   6.079673   0.000000
    14  H    5.607801   5.440761   2.502273   0.000000
    15  H    3.785573   3.735708   4.304920   2.503763   0.000000
    16  H    3.039641   3.925659   4.121595   4.897217   4.302515
    17  H    2.097566   2.645223   5.809441   4.668196   2.330407
    18  H    3.292789   4.517502   6.489846   5.856721   3.968471
    19  H    2.863655   4.250661   5.851166   5.894288   4.458057
    20  H    3.270742   4.471450   8.344328   7.724967   5.540604
    21  H    2.952253   4.330800   7.864276   7.775234   5.938338
    22  H    2.115016   2.619484   7.881593   6.996506   4.703329
    23  H    2.118686   2.819145   8.071612   7.714693   5.738301
    24  H    2.125715   1.101044   6.523991   5.453423   3.476819
    25  H    2.097708   1.096074   6.878927   6.416107   4.818870
    26  H    2.103615   1.096285   5.179479   4.679052   3.417332
    27  O    5.744673   6.055375   3.607606   5.673431   6.357408
    28  O    2.521012   3.249364   6.044494   6.636081   5.588316
    29  O    4.201260   4.270426   5.069131   6.270196   6.098232
    30  H    6.424112   6.867525   4.150424   6.349953   7.080626
    31  H    3.008750   3.698229   6.991282   7.568640   6.405830
    32  H    4.125960   3.887959   4.678994   5.686781   5.613845
    33  H    5.255338   5.635702   2.835234   4.819921   5.499443
    34  H    4.722662   4.934195   4.532555   6.072060   6.197269
    35  H    3.309303   3.639307   5.432915   6.348549   5.755182
    36  H    1.403145   2.301934   5.902801   6.072276   4.706378
    37  O    4.482731   3.820893   4.199077   4.806256   5.005897
    38  H    5.198017   4.655456   3.584859   4.550303   5.234543
    39  H    5.027496   4.142345   4.980732   5.417145   5.593245
    40  O    6.473618   6.172324   2.949825   4.713151   6.046833
    41  H    7.390428   7.017600   3.613410   5.378736   6.884298
    42  H    6.412158   6.307490   3.079505   5.132779   6.326108
                   16         17         18         19         20
    16  H    0.000000
    17  H    3.811085   0.000000
    18  H    3.772197   2.378615   0.000000
    19  H    2.337045   3.048764   1.764369   0.000000
    20  H    4.954929   3.280448   2.393956   2.968409   0.000000
    21  H    3.975285   3.848449   2.921314   2.327239   1.764308
    22  H    4.976995   2.512417   3.536153   3.918685   2.371099
    23  H    4.605847   3.660624   4.227963   3.868673   2.812039
    24  H    4.739886   2.431089   4.607352   4.752405   4.534174
    25  H    4.534300   3.638695   5.330978   4.919079   4.872565
    26  H    3.629355   3.032150   4.926652   4.502519   5.302708
    27  O    3.220748   6.673792   6.937725   5.496353   8.122337
    28  O    2.413138   4.394009   4.729500   3.324651   4.698160
    29  O    3.076200   5.779458   6.495726   5.077557   6.951774
    30  H    3.692813   7.335699   7.331898   5.819133   8.547896
    31  H    3.309809   5.000590   5.239107   3.875141   4.782577
    32  H    3.356137   5.552274   6.606906   5.378268   7.150385
    33  H    2.597758   5.929354   6.162505   4.838765   7.548450
    34  H    2.897342   6.084346   6.586065   5.097266   7.316226
    35  H    2.524555   5.045046   5.616066   4.181472   5.881449
    36  H    2.393324   3.331901   3.949428   2.853034   3.923207
    37  O    4.137216   5.477506   6.972014   6.066694   7.702992
    38  H    4.340986   6.006332   7.372863   6.434083   8.337917
    39  H    5.042107   6.063367   7.723066   6.883052   8.293172
    40  O    4.838164   7.091773   8.120949   7.086739   9.396926
    41  H    5.775141   8.015987   9.077185   8.038607  10.348134
    42  H    4.424722   7.156609   7.928119   6.736947   9.192414
                   21         22         23         24         25
    21  H    0.000000
    22  H    3.040289   0.000000
    23  H    2.407671   1.777534   0.000000
    24  H    4.807198   2.441837   3.254731   0.000000
    25  H    4.567624   2.903341   2.617357   1.786484   0.000000
    26  H    5.022873   3.650035   3.776995   1.792946   1.782774
    27  O    6.942816   7.846440   7.224183   6.973316   6.410337
    28  O    3.360427   4.261774   3.129587   4.295673   3.248387
    29  O    5.717330   6.196434   5.276626   5.328839   4.254718
    30  H    7.285300   8.492350   7.803089   7.797916   7.214783
    31  H    3.325803   4.387339   2.934810   4.715825   3.444025
    32  H    6.113723   6.119698   5.413740   4.873266   3.923127
    33  H    6.515931   7.334822   6.907356   6.472468   6.146224
    34  H    6.054503   6.788510   5.952312   5.956937   5.072473
    35  H    4.604183   5.243424   4.232505   4.728931   3.624674
    36  H    2.918712   3.243652   2.424577   3.278393   2.513190
    37  O    6.982564   6.356569   6.044916   4.557476   4.012055
    38  H    7.593237   7.139685   6.872073   5.351229   4.946297
    39  H    7.618838   6.742743   6.424241   4.793113   4.157810
    40  O    8.564116   8.506753   8.229680   6.867033   6.559630
    41  H    9.496915   9.409413   9.109184   7.693254   7.349157
    42  H    8.220991   8.504071   8.086921   7.100001   6.672298
                   26         27         28         29         30
    26  H    0.000000
    27  O    5.314931   0.000000
    28  O    3.323848   4.254688   0.000000
    29  O    3.712005   2.653865   2.407016   0.000000
    30  H    6.187477   0.960499   4.778307   3.361028   0.000000
    31  H    3.949538   4.975579   0.960538   2.940966   5.427192
    32  H    3.145005   2.941767   2.909760   1.002550   3.803804
    33  H    4.898116   1.003659   4.144262   2.966049   1.595520
    34  H    4.303002   1.684735   2.934735   0.992784   2.369908
    35  H    3.335593   3.293877   1.274076   1.133173   3.913977
    36  H    2.566766   4.809267   1.118037   3.084896   5.423015
    37  O    2.812355   3.753157   4.121716   2.604545   4.705140
    38  H    3.607952   3.342445   4.727149   2.946451   4.276657
    39  H    3.189159   4.566385   4.744093   3.219816   5.499249
    40  O    5.136478   2.795327   5.742359   3.761095   3.538455
    41  H    5.967119   3.455470   6.596385   4.479993   4.066683
    42  H    5.345725   1.910826   5.369054   3.351567   2.590997
                   31         32         33         34         35
    31  H    0.000000
    32  H    3.520032   0.000000
    33  H    4.979071   3.116862   0.000000
    34  H    3.556456   1.593615   2.128856   0.000000
    35  H    1.881568   1.759089   3.371865   1.773210   0.000000
    36  H    1.722026   3.277681   4.495810   3.623622   2.051654
    37  O    4.798844   1.610853   3.708480   2.954145   3.194198
    38  H    5.462218   2.069424   3.319828   2.981149   3.707136
    39  H    5.306108   2.235972   4.615435   3.687607   3.832550
    40  O    6.520742   3.218930   2.873955   3.317757   4.653283
    41  H    7.331687   3.947902   3.674619   4.039000   5.454170
    42  H    6.126614   3.062791   2.181812   2.706206   4.259279
                   36         37         38         39         40
    36  H    0.000000
    37  O    4.107211   0.000000
    38  H    4.786965   0.983793   0.000000
    39  H    4.718630   0.960834   1.554018   0.000000
    40  O    5.950815   2.706838   1.748339   3.212576   0.000000
    41  H    6.850420   3.381440   2.422635   3.681550   0.960244
    42  H    5.721416   3.057521   2.243092   3.685918   0.972099
                   41         42
    41  H    0.000000
    42  H    1.551191   0.000000
 Stoichiometry    C10H25N2O5(1+)
 Framework group  C1[X(C10H25N2O5)]
 Deg. of freedom   120
 Full point group                 C1      NOp   1
 Largest Abelian subgroup         C1      NOp   1
 Largest concise Abelian subgroup C1      NOp   1
                         Standard orientation:                         
 ---------------------------------------------------------------------
 Center     Atomic      Atomic             Coordinates (Angstroms)
 Number     Number       Type             X           Y           Z
 ---------------------------------------------------------------------
      1          7           0       -1.538820    1.033319   -1.067426
      2          6           0       -1.997331    2.087279   -0.382638
      3          6           0       -1.181647    2.847193    0.447437
      4          6           0        0.152182    2.476936    0.589312
      5          6           0        0.643117    1.376989   -0.114266
      6          6           0       -0.251588    0.701015   -0.942786
      7          6           0        2.072565    0.919788    0.038803
      8          6           0        2.897885    0.786410   -1.249378
      9          6           0        3.971213   -0.278163   -0.915654
     10          6           0        3.614614   -0.764065    0.496956
     11          7           0        2.181640   -0.433943    0.644842
     12          6           0        1.702439   -0.500951    2.027549
     13          1           0       -3.055759    2.317073   -0.498459
     14          1           0       -1.589455    3.702814    0.981758
     15          1           0        0.810722    3.042425    1.249834
     16          1           0        0.073810   -0.159504   -1.527979
     17          1           0        2.581974    1.623691    0.720064
     18          1           0        3.325719    1.752171   -1.535628
     19          1           0        2.261313    0.453240   -2.076753
     20          1           0        4.985263    0.132266   -0.941620
     21          1           0        3.933929   -1.103404   -1.634873
     22          1           0        4.193124   -0.225670    1.264396
     23          1           0        3.767380   -1.839010    0.651614
     24          1           0        2.244308    0.210848    2.669436
     25          1           0        1.859217   -1.514765    2.413527
     26          1           0        0.630423   -0.273405    2.056631
     27          8           0       -3.008102   -1.071872   -1.734421
     28          8           0        0.932950   -2.222940   -0.618393
     29          8           0       -1.412633   -2.464579   -0.135095
     30          1           0       -3.280331   -1.229952   -2.641868
     31          1           0        1.425446   -3.047326   -0.640062
     32          1           0       -1.644283   -1.977197    0.709833
     33          1           0       -2.518338   -0.196733   -1.694498
     34          1           0       -1.989432   -2.074779   -0.842893
     35          1           0       -0.307207   -2.367381   -0.364587
     36          1           0        1.490544   -1.423420   -0.070796
     37          8           0       -2.085184   -0.988297    1.902532
     38          1           0       -2.929734   -0.605058    1.574337
     39          1           0       -2.281103   -1.365738    2.764133
     40          8           0       -4.284962   -0.141647    0.571693
     41          1           0       -5.205224   -0.275607    0.810946
     42          1           0       -4.159299   -0.551122   -0.300956
 ---------------------------------------------------------------------
 Rotational constants (GHZ):           0.5761953           0.2872876           0.2476121
 Standard basis: Aug-CC-pVDZ (5D, 7F)
 There are   650 symmetry adapted cartesian basis functions of A   symmetry.
 There are   616 symmetry adapted basis functions of A   symmetry.
   616 basis functions,  1006 primitive gaussians,   650 cartesian basis functions
    69 alpha electrons       69 beta electrons
       nuclear repulsion energy      1437.1046174889 Hartrees.
 NAtoms=   42 NActive=   42 NUniq=   42 SFac= 1.00D+00 NAtFMM=   60 NAOKFM=F Big=F
 Integral buffers will be    131072 words long.
 Raffenetti 2 integral format.
 Two-electron integral symmetry is turned on.
 Nuclear repulsion after empirical dispersion term =     1437.0681372403 Hartrees.
 One-electron integrals computed using PRISM.
 NBasis=   616 RedAO= T EigKep=  1.84D-06  NBF=   616
 NBsUse=   616 1.00D-06 EigRej= -1.00D+00 NBFU=   616
 ExpMin= 2.97D-02 ExpMax= 1.17D+04 ExpMxC= 4.01D+02 IAcc=3 IRadAn=         5 AccDes= 0.00D+00
 Harris functional with IExCor= 4639 and IRadAn=       5 diagonalized for initial guess.
 HarFok:  IExCor= 4639 AccDes= 0.00D+00 IRadAn=         5 IDoV= 1 UseB2=F ITyADJ=14
 ICtDFT=  3500011 ScaDFX=  1.000000  1.000000  1.000000  1.000000
 FoFCou: FMM=F IPFlag=           0 FMFlag=      100000 FMFlg1=           0
         NFxFlg=           0 DoJE=T BraDBF=F KetDBF=T FulRan=T
         wScrn=  0.000000 ICntrl=       500 IOpCl=  0 I1Cent=   200000004 NGrid=           0
         NMat0=    1 NMatS0=      1 NMatT0=    0 NMatD0=    1 NMtDS0=    0 NMtDT0=    0
 Petite list used in FoFCou.
 Requested convergence on RMS density matrix=1.00D-08 within 128 cycles.
 Requested convergence on MAX density matrix=1.00D-06.
 Requested convergence on             energy=1.00D-06.
 No special actions if energy rises.
 SCF Done:  E(RwB97XD) =  -881.462713565     A.U. after   16 cycles
            NFock= 16  Conv=0.16D-08     -V/T= 2.0061
 DoSCS=F DFT=T ScalE2(SS,OS)=  1.000000  1.000000
 Range of M.O.s used for correlation:     1   616
 NBasis=   616 NAE=    69 NBE=    69 NFC=     0 NFV=     0
 NROrb=    616 NOA=    69 NOB=    69 NVA=   547 NVB=   547

 **** Warning!!: The largest alpha MO coefficient is  0.11121772D+03

 Symmetrizing basis deriv contribution to polar:
 IMax=3 JMax=2 DiffMx= 0.00D+00
 G2DrvN: will do    43 centers at a time, making    1 passes.
 Calling FoFCou, ICntrl=  3107 FMM=F I1Cent=   0 AccDes= 0.00D+00.
 End of G2Drv F.D. properties file   721 does not exist.
 End of G2Drv F.D. properties file   722 does not exist.
 End of G2Drv F.D. properties file   788 does not exist.
          IDoAtm=111111111111111111111111111111111111111111
          Differentiating once with respect to electric field.
                with respect to dipole field.
          Differentiating once with respect to nuclear coordinates.
 CalDSu exits because no D1Ps are significant.
          There are   129 degrees of freedom in the 1st order CPHF.  IDoFFX=6 NUNeed=     3.
    126 vectors produced by pass  0 Test12= 3.77D-14 1.00D-09 XBig12= 7.90D+01 2.99D+00.
 AX will form   126 AO Fock derivatives at one time.
    126 vectors produced by pass  1 Test12= 3.77D-14 1.00D-09 XBig12= 9.47D+00 6.93D-01.
    126 vectors produced by pass  2 Test12= 3.77D-14 1.00D-09 XBig12= 2.24D-01 6.76D-02.
    126 vectors produced by pass  3 Test12= 3.77D-14 1.00D-09 XBig12= 2.15D-03 4.48D-03.
    126 vectors produced by pass  4 Test12= 3.77D-14 1.00D-09 XBig12= 2.00D-05 2.91D-04.
    126 vectors produced by pass  5 Test12= 3.77D-14 1.00D-09 XBig12= 1.37D-07 1.82D-05.
    123 vectors produced by pass  6 Test12= 3.77D-14 1.00D-09 XBig12= 8.04D-10 1.51D-06.
     46 vectors produced by pass  7 Test12= 3.77D-14 1.00D-09 XBig12= 3.98D-12 1.10D-07.
      3 vectors produced by pass  8 Test12= 3.77D-14 1.00D-09 XBig12= 2.48D-14 9.24D-09.
      3 vectors produced by pass  9 Test12= 3.77D-14 1.00D-09 XBig12= 3.62D-15 4.68D-09.
 InvSVY:  IOpt=1 It=  1 EMax= 1.95D-14
 Solved reduced A of dimension   931 with   129 vectors.
 Isotropic polarizability for W=    0.000000      170.23 Bohr**3.
 End of Minotr F.D. properties file   721 does not exist.
 End of Minotr F.D. properties file   722 does not exist.
 End of Minotr F.D. properties file   788 does not exist.

 **********************************************************************

            Population analysis using the SCF density.

 **********************************************************************

 Orbital symmetries:
       Occupied  (A) (A) (A) (A) (A) (A) (A) (A) (A) (A) (A) (A)
                 (A) (A) (A) (A) (A) (A) (A) (A) (A) (A) (A) (A)
                 (A) (A) (A) (A) (A) (A) (A) (A) (A) (A) (A) (A)
                 (A) (A) (A) (A) (A) (A) (A) (A) (A) (A) (A) (A)
                 (A) (A) (A) (A) (A) (A) (A) (A) (A) (A) (A) (A)
                 (A) (A) (A) (A) (A) (A) (A) (A) (A)
       Virtual   (A) (A) (A) (A) (A) (A) (A) (A) (A) (A) (A) (A)
                 (A) (A) (A) (A) (A) (A) (A) (A) (A) (A) (A) (A)
                 (A) (A) (A) (A) (A) (A) (A) (A) (A) (A) (A) (A)
                 (A) (A) (A) (A) (A) (A) (A) (A) (A) (A) (A) (A)
                 (A) (A) (A) (A) (A) (A) (A) (A) (A) (A) (A) (A)
                 (A) (A) (A) (A) (A) (A) (A) (A) (A) (A) (A) (A)
                 (A) (A) (A) (A) (A) (A) (A) (A) (A) (A) (A) (A)
                 (A) (A) (A) (A) (A) (A) (A) (A) (A) (A) (A) (A)
                 (A) (A) (A) (A) (A) (A) (A) (A) (A) (A) (A) (A)
                 (A) (A) (A) (A) (A) (A) (A) (A) (A) (A) (A) (A)
                 (A) (A) (A) (A) (A) (A) (A) (A) (A) (A) (A) (A)
                 (A) (A) (A) (A) (A) (A) (A) (A) (A) (A) (A) (A)
                 (A) (A) (A) (A) (A) (A) (A) (A) (A) (A) (A) (A)
                 (A) (A) (A) (A) (A) (A) (A) (A) (A) (A) (A) (A)
                 (A) (A) (A) (A) (A) (A) (A) (A) (A) (A) (A) (A)
                 (A) (A) (A) (A) (A) (A) (A) (A) (A) (A) (A) (A)
                 (A) (A) (A) (A) (A) (A) (A) (A) (A) (A) (A) (A)
                 (A) (A) (A) (A) (A) (A) (A) (A) (A) (A) (A) (A)
                 (A) (A) (A) (A) (A) (A) (A) (A) (A) (A) (A) (A)
                 (A) (A) (A) (A) (A) (A) (A) (A) (A) (A) (A) (A)
                 (A) (A) (A) (A) (A) (A) (A) (A) (A) (A) (A) (A)
                 (A) (A) (A) (A) (A) (A) (A) (A) (A) (A) (A) (A)
                 (A) (A) (A) (A) (A) (A) (A) (A) (A) (A) (A) (A)
                 (A) (A) (A) (A) (A) (A) (A) (A) (A) (A) (A) (A)
                 (A) (A) (A) (A) (A) (A) (A) (A) (A) (A) (A) (A)
                 (A) (A) (A) (A) (A) (A) (A) (A) (A) (A) (A) (A)
                 (A) (A) (A) (A) (A) (A) (A) (A) (A) (A) (A) (A)
                 (A) (A) (A) (A) (A) (A) (A) (A) (A) (A) (A) (A)
                 (A) (A) (A) (A) (A) (A) (A) (A) (A) (A) (A) (A)
                 (A) (A) (A) (A) (A) (A) (A) (A) (A) (A) (A) (A)
                 (A) (A) (A) (A) (A) (A) (A) (A) (A) (A) (A) (A)
                 (A) (A) (A) (A) (A) (A) (A) (A) (A) (A) (A) (A)
                 (A) (A) (A) (A) (A) (A) (A) (A) (A) (A) (A) (A)
                 (A) (A) (A) (A) (A) (A) (A) (A) (A) (A) (A) (A)
                 (A) (A) (A) (A) (A) (A) (A) (A) (A) (A) (A) (A)
                 (A) (A) (A) (A) (A) (A) (A) (A) (A) (A) (A) (A)
                 (A) (A) (A) (A) (A) (A) (A) (A) (A) (A) (A) (A)
                 (A) (A) (A) (A) (A) (A) (A) (A) (A) (A) (A) (A)
                 (A) (A) (A) (A) (A) (A) (A) (A) (A) (A) (A) (A)
                 (A) (A) (A) (A) (A) (A) (A) (A) (A) (A) (A) (A)
                 (A) (A) (A) (A) (A) (A) (A) (A) (A) (A) (A) (A)
                 (A) (A) (A) (A) (A) (A) (A) (A) (A) (A) (A) (A)
                 (A) (A) (A) (A) (A) (A) (A) (A) (A) (A) (A) (A)
                 (A) (A) (A) (A) (A) (A) (A) (A) (A) (A) (A) (A)
                 (A) (A) (A) (A) (A) (A) (A) (A) (A) (A) (A) (A)
                 (A) (A) (A) (A) (A) (A) (A)
 The electronic state is 1-A.
 Alpha  occ. eigenvalues --  -19.42992 -19.40295 -19.40162 -19.39992 -19.39500
 Alpha  occ. eigenvalues --  -14.60671 -14.58499 -10.46306 -10.46014 -10.45731
 Alpha  occ. eigenvalues --  -10.44735 -10.44259 -10.44119 -10.43961 -10.42839
 Alpha  occ. eigenvalues --  -10.41458 -10.41187  -1.29244  -1.24931  -1.24437
 Alpha  occ. eigenvalues --   -1.23728  -1.22993  -1.18957  -1.17812  -1.04448
 Alpha  occ. eigenvalues --   -1.01489  -0.99991  -0.94583  -0.90367  -0.86172
 Alpha  occ. eigenvalues --   -0.84850  -0.81328  -0.80248  -0.78966  -0.78005
 Alpha  occ. eigenvalues --   -0.77248  -0.75878  -0.75085  -0.73907  -0.72724
 Alpha  occ. eigenvalues --   -0.71589  -0.70499  -0.69502  -0.66786  -0.65690
 Alpha  occ. eigenvalues --   -0.65108  -0.64693  -0.62714  -0.62359  -0.61949
 Alpha  occ. eigenvalues --   -0.61608  -0.60218  -0.60037  -0.59565  -0.59052
 Alpha  occ. eigenvalues --   -0.57804  -0.57640  -0.56356  -0.55204  -0.54738
 Alpha  occ. eigenvalues --   -0.54496  -0.54025  -0.53875  -0.52625  -0.52441
 Alpha  occ. eigenvalues --   -0.49151  -0.48380  -0.47168  -0.45849
 Alpha virt. eigenvalues --   -0.09067  -0.07710  -0.06602  -0.05396  -0.04996
 Alpha virt. eigenvalues --   -0.04574  -0.03329  -0.03282  -0.03029  -0.02408
 Alpha virt. eigenvalues --   -0.02071  -0.01502  -0.01041  -0.00643  -0.00635
 Alpha virt. eigenvalues --    0.00042   0.00303   0.00567   0.00782   0.01590
 Alpha virt. eigenvalues --    0.01692   0.02123   0.02340   0.02517   0.02677
 Alpha virt. eigenvalues --    0.03197   0.03533   0.04055   0.04192   0.04733
 Alpha virt. eigenvalues --    0.04959   0.05388   0.05444   0.05683   0.06036
 Alpha virt. eigenvalues --    0.06489   0.06733   0.06797   0.06946   0.07097
 Alpha virt. eigenvalues --    0.07375   0.07623   0.07937   0.08086   0.08328
 Alpha virt. eigenvalues --    0.08621   0.08898   0.09473   0.09595   0.09853
 Alpha virt. eigenvalues --    0.09933   0.10637   0.10782   0.10944   0.11201
 Alpha virt. eigenvalues --    0.11862   0.11958   0.12258   0.12357   0.12608
 Alpha virt. eigenvalues --    0.13234   0.13402   0.13728   0.13925   0.14536
 Alpha virt. eigenvalues --    0.14869   0.15191   0.15320   0.15791   0.15953
 Alpha virt. eigenvalues --    0.16071   0.16496   0.16574   0.16835   0.17012
 Alpha virt. eigenvalues --    0.17126   0.17445   0.17718   0.18142   0.18267
 Alpha virt. eigenvalues --    0.18431   0.18614   0.18842   0.19522   0.19757
 Alpha virt. eigenvalues --    0.19875   0.19960   0.20610   0.20851   0.21098
 Alpha virt. eigenvalues --    0.21317   0.21556   0.21834   0.22152   0.22421
 Alpha virt. eigenvalues --    0.22762   0.23173   0.23329   0.23550   0.24118
 Alpha virt. eigenvalues --    0.24350   0.24852   0.25332   0.25684   0.25881
 Alpha virt. eigenvalues --    0.26310   0.26486   0.27150   0.27254   0.27773
 Alpha virt. eigenvalues --    0.28185   0.28247   0.28494   0.28796   0.29196
 Alpha virt. eigenvalues --    0.29628   0.29796   0.30648   0.30955   0.31552
 Alpha virt. eigenvalues --    0.31700   0.32075   0.32112   0.32340   0.32461
 Alpha virt. eigenvalues --    0.33579   0.33833   0.34158   0.34320   0.34778
 Alpha virt. eigenvalues --    0.35667   0.35864   0.36215   0.36373   0.36980
 Alpha virt. eigenvalues --    0.37380   0.37515   0.38184   0.38461   0.38787
 Alpha virt. eigenvalues --    0.39013   0.39074   0.39764   0.39888   0.40813
 Alpha virt. eigenvalues --    0.40871   0.41414   0.41836   0.42705   0.43309
 Alpha virt. eigenvalues --    0.43558   0.43855   0.44065   0.44376   0.44564
 Alpha virt. eigenvalues --    0.45154   0.45757   0.45886   0.46030   0.46562
 Alpha virt. eigenvalues --    0.46853   0.47446   0.47672   0.48008   0.48190
 Alpha virt. eigenvalues --    0.48547   0.49107   0.49556   0.49590   0.49726
 Alpha virt. eigenvalues --    0.50140   0.50654   0.51215   0.51711   0.51891
 Alpha virt. eigenvalues --    0.52260   0.52757   0.52917   0.53191   0.53441
 Alpha virt. eigenvalues --    0.53751   0.54072   0.54654   0.55026   0.55346
 Alpha virt. eigenvalues --    0.55848   0.56611   0.57334   0.57434   0.57584
 Alpha virt. eigenvalues --    0.57800   0.58530   0.58842   0.59213   0.59424
 Alpha virt. eigenvalues --    0.59738   0.60411   0.60829   0.61099   0.61545
 Alpha virt. eigenvalues --    0.61624   0.62020   0.62537   0.62817   0.63175
 Alpha virt. eigenvalues --    0.63288   0.63587   0.64633   0.64967   0.65586
 Alpha virt. eigenvalues --    0.65795   0.66312   0.66343   0.67005   0.67553
 Alpha virt. eigenvalues --    0.67840   0.68122   0.68537   0.69111   0.69227
 Alpha virt. eigenvalues --    0.69836   0.70308   0.70391   0.71072   0.71452
 Alpha virt. eigenvalues --    0.71714   0.72366   0.72721   0.73106   0.73271
 Alpha virt. eigenvalues --    0.73619   0.74332   0.74681   0.75362   0.75752
 Alpha virt. eigenvalues --    0.75881   0.76331   0.76677   0.77289   0.78735
 Alpha virt. eigenvalues --    0.79548   0.79952   0.80205   0.80681   0.80927
 Alpha virt. eigenvalues --    0.81483   0.82656   0.83034   0.83573   0.84080
 Alpha virt. eigenvalues --    0.84451   0.85277   0.85731   0.86080   0.86786
 Alpha virt. eigenvalues --    0.87284   0.88255   0.88861   0.89072   0.89327
 Alpha virt. eigenvalues --    0.90036   0.90980   0.91371   0.91782   0.92344
 Alpha virt. eigenvalues --    0.93286   0.93460   0.94406   0.94857   0.95407
 Alpha virt. eigenvalues --    0.96328   0.96576   0.98263   0.98836   0.99702
 Alpha virt. eigenvalues --    1.00448   1.00821   1.01152   1.02224   1.02988
 Alpha virt. eigenvalues --    1.04136   1.04406   1.04732   1.05692   1.06226
 Alpha virt. eigenvalues --    1.06889   1.07001   1.07617   1.08713   1.09375
 Alpha virt. eigenvalues --    1.10177   1.10418   1.11452   1.11548   1.12046
 Alpha virt. eigenvalues --    1.13369   1.14031   1.15615   1.16264   1.16599
 Alpha virt. eigenvalues --    1.17333   1.18082   1.18390   1.18881   1.19839
 Alpha virt. eigenvalues --    1.20236   1.20938   1.21842   1.22666   1.23110
 Alpha virt. eigenvalues --    1.23749   1.24392   1.26212   1.26513   1.27562
 Alpha virt. eigenvalues --    1.27801   1.29512   1.30436   1.31187   1.31428
 Alpha virt. eigenvalues --    1.32737   1.33985   1.34604   1.34729   1.35639
 Alpha virt. eigenvalues --    1.36139   1.37934   1.38735   1.39163   1.39753
 Alpha virt. eigenvalues --    1.40853   1.41357   1.42086   1.43670   1.45107
 Alpha virt. eigenvalues --    1.45986   1.46363   1.46536   1.47331   1.48665
 Alpha virt. eigenvalues --    1.49133   1.49520   1.50898   1.51773   1.53232
 Alpha virt. eigenvalues --    1.53942   1.54024   1.55247   1.56058   1.56224
 Alpha virt. eigenvalues --    1.56712   1.58266   1.59327   1.59966   1.60126
 Alpha virt. eigenvalues --    1.60970   1.61683   1.62211   1.63220   1.64213
 Alpha virt. eigenvalues --    1.64891   1.65777   1.66266   1.67614   1.67798
 Alpha virt. eigenvalues --    1.68446   1.68937   1.70146   1.71356   1.71446
 Alpha virt. eigenvalues --    1.71842   1.72595   1.73507   1.74396   1.74687
 Alpha virt. eigenvalues --    1.75352   1.75775   1.76500   1.76813   1.78499
 Alpha virt. eigenvalues --    1.79128   1.80657   1.80856   1.81758   1.82040
 Alpha virt. eigenvalues --    1.82632   1.83342   1.84263   1.85083   1.86329
 Alpha virt. eigenvalues --    1.86909   1.87424   1.88175   1.88920   1.90047
 Alpha virt. eigenvalues --    1.90484   1.90950   1.91377   1.91764   1.92423
 Alpha virt. eigenvalues --    1.93768   1.94476   1.94793   1.96051   1.97489
 Alpha virt. eigenvalues --    1.98221   1.98766   1.99518   2.00034   2.00714
 Alpha virt. eigenvalues --    2.01049   2.01879   2.02987   2.03483   2.04156
 Alpha virt. eigenvalues --    2.04420   2.05305   2.05536   2.07201   2.07980
 Alpha virt. eigenvalues --    2.10395   2.11487   2.12550   2.12680   2.12961
 Alpha virt. eigenvalues --    2.14327   2.14869   2.15763   2.16944   2.17450
 Alpha virt. eigenvalues --    2.18274   2.18582   2.20232   2.21297   2.21870
 Alpha virt. eigenvalues --    2.22777   2.23723   2.24867   2.25760   2.26529
 Alpha virt. eigenvalues --    2.27112   2.27878   2.29237   2.29703   2.30739
 Alpha virt. eigenvalues --    2.31355   2.31983   2.33140   2.33662   2.34570
 Alpha virt. eigenvalues --    2.35392   2.37126   2.39326   2.39761   2.40699
 Alpha virt. eigenvalues --    2.42084   2.42841   2.44311   2.45029   2.45919
 Alpha virt. eigenvalues --    2.47372   2.47874   2.50273   2.50581   2.51661
 Alpha virt. eigenvalues --    2.51888   2.52812   2.55678   2.56438   2.56882
 Alpha virt. eigenvalues --    2.58187   2.59281   2.59760   2.60553   2.61508
 Alpha virt. eigenvalues --    2.62247   2.62733   2.63611   2.64744   2.66385
 Alpha virt. eigenvalues --    2.66434   2.67900   2.69543   2.70029   2.71893
 Alpha virt. eigenvalues --    2.73247   2.75106   2.76397   2.76555   2.77679
 Alpha virt. eigenvalues --    2.79225   2.79880   2.81128   2.82580   2.84018
 Alpha virt. eigenvalues --    2.86541   2.87311   2.88532   2.89996   2.91353
 Alpha virt. eigenvalues --    2.92822   2.93624   2.94373   2.95578   2.95851
 Alpha virt. eigenvalues --    2.98419   2.99831   3.01100   3.05123   3.06834
 Alpha virt. eigenvalues --    3.11952   3.12297   3.16708   3.18574   3.24830
 Alpha virt. eigenvalues --    3.32059   3.33427   3.36580   3.37954   3.39059
 Alpha virt. eigenvalues --    3.40283   3.41834   3.42363   3.44421   3.44755
 Alpha virt. eigenvalues --    3.45947   3.49839   3.50605   3.53682   3.56476
 Alpha virt. eigenvalues --    3.56901   3.61122   3.68207   3.73101   3.75841
 Alpha virt. eigenvalues --    3.82091   3.84238   3.90796   3.93510   3.95827
 Alpha virt. eigenvalues --    4.02353   4.04249   4.08498   4.13745   4.26270
 Alpha virt. eigenvalues --    4.37793   4.97627
          Condensed to atoms (all electrons):
               1          2          3          4          5          6
     1  N    8.806541   0.002634   0.548936  -0.841478   0.084421  -1.210342
     2  C    0.002634  11.898125  -4.272416   3.147000  -2.108871  -1.176877
     3  C    0.548936  -4.272416  13.750306  -6.102380   1.619361  -0.763474
     4  C   -0.841478   3.147000  -6.102380  27.284976 -12.956029  -0.823621
     5  C    0.084421  -2.108871   1.619361 -12.956029  29.187225  -4.956518
     6  C   -1.210342  -1.176877  -0.763474  -0.823621  -4.956518  18.479206
     7  C    0.521768  -1.206430   1.084251  -1.729205 -10.199477  -2.121151
     8  C   -0.100156  -0.125235   0.007926   0.115431  -0.093908  -0.626808
     9  C   -0.001017   0.008007  -0.017000  -0.106844   0.286204   0.005531
    10  C    0.010348  -0.039874   0.026853   0.101226  -0.680184  -0.065413
    11  N    0.026174   0.122464  -0.144366  -0.780878   2.454825   0.218344
    12  C    0.020160  -0.078516   0.145446  -0.353268   0.618108  -0.231205
    13  H   -0.149743  -0.974865   0.323550   0.019447   0.089332   0.182213
    14  H   -0.066117   0.438209  -1.458386   0.785944  -0.030767  -0.016814
    15  H   -0.029927  -0.306404   0.920550  -3.038142   1.491042   0.063293
    16  H   -0.187140  -0.027217   0.039614  -0.227873  -0.341289  -1.380021
    17  H   -0.000094   0.057207  -0.067166   0.177353   0.983772  -0.140491
    18  H   -0.016508   0.007581  -0.000760  -0.038119   0.396979   0.255377
    19  H    0.016105   0.006144  -0.029517   0.031393  -0.047892  -0.100874
    20  H   -0.002117   0.002826  -0.003376  -0.013941   0.031554   0.046753
    21  H    0.002374  -0.002762   0.001243   0.010902  -0.127869  -0.050602
    22  H   -0.001836  -0.002993   0.004188   0.019079   0.258941   0.026038
    23  H   -0.001071  -0.000660   0.000680   0.046647  -0.273196  -0.000963
    24  H   -0.006463   0.012331  -0.027804   0.043632   0.052417   0.029577
    25  H    0.004156  -0.012026   0.024419  -0.097238   0.117929  -0.084799
    26  H   -0.003163  -0.040000   0.058095   0.138320  -0.316953   0.098663
    27  O    0.049256   0.085591  -0.009806   0.015713  -0.127783  -0.091251
    28  O    0.028181   0.008666   0.002159  -0.019848  -0.080064  -0.066065
    29  O   -0.018426   0.031863  -0.016181   0.027312   0.013471  -0.101055
    30  H   -0.002498  -0.017991   0.016041  -0.011755   0.024857  -0.010733
    31  H   -0.007293   0.002162  -0.001247   0.011355   0.017924   0.031059
    32  H   -0.004663   0.009961  -0.000404   0.017121  -0.033877   0.034895
    33  H    0.093193   0.107203  -0.094760   0.031613  -0.004774  -0.094572
    34  H    0.019468  -0.001242   0.004755  -0.008178   0.025602  -0.049699
    35  H   -0.010380  -0.015395   0.001562  -0.017331   0.017941   0.000285
    36  H    0.068131  -0.008496   0.003188  -0.138383  -0.072483  -0.270333
    37  O    0.036833   0.011570   0.007356  -0.009196   0.036348  -0.110222
    38  H   -0.013178   0.006327  -0.009892  -0.005347   0.034045  -0.026067
    39  H    0.000848  -0.001738  -0.000529  -0.001789  -0.011796   0.025118
    40  O   -0.030003  -0.052963   0.023949  -0.023475   0.040077  -0.018633
    41  H    0.008585   0.005633  -0.001880   0.002280  -0.006674   0.006057
    42  H   -0.026903  -0.028095   0.009726  -0.011035   0.027522   0.005629
               7          8          9         10         11         12
     1  N    0.521768  -0.100156  -0.001017   0.010348   0.026174   0.020160
     2  C   -1.206430  -0.125235   0.008007  -0.039874   0.122464  -0.078516
     3  C    1.084251   0.007926  -0.017000   0.026853  -0.144366   0.145446
     4  C   -1.729205   0.115431  -0.106844   0.101226  -0.780878  -0.353268
     5  C  -10.199477  -0.093908   0.286204  -0.680184   2.454825   0.618108
     6  C   -2.121151  -0.626808   0.005531  -0.065413   0.218344  -0.231205
     7  C   28.451096  -1.622652   0.066859  -0.359162  -7.019382  -0.686681
     8  C   -1.622652   8.472740  -0.816237   0.707503  -0.890811  -0.176842
     9  C    0.066859  -0.816237   6.260779   0.085199  -0.625174   0.061037
    10  C   -0.359162   0.707503   0.085199   5.843140  -0.160753  -0.129791
    11  N   -7.019382  -0.890811  -0.625174  -0.160753  20.171528   0.888746
    12  C   -0.686681  -0.176842   0.061037  -0.129791   0.888746   4.702480
    13  H   -0.013493   0.005428   0.000506  -0.000233   0.005664   0.001600
    14  H    0.005749   0.003874   0.000485  -0.000480   0.000997  -0.009764
    15  H    0.034658  -0.076499  -0.000000  -0.000623  -0.005065   0.056746
    16  H    0.175018   0.138797   0.016041   0.008143  -0.297089   0.039834
    17  H   -2.984738   0.787179  -0.067333   0.122294  -0.659461  -0.132005
    18  H    0.135260  -1.110589   0.179127  -0.221526   0.289485   0.071772
    19  H   -0.232306  -0.087734   0.295943   0.060709  -0.093127  -0.050594
    20  H   -0.140162   0.215764  -0.245880   0.185207  -0.089561  -0.027149
    21  H    0.371746   0.200715  -0.410619  -0.058030   0.048179   0.014382
    22  H    0.129885   0.002409  -0.034454  -0.380949  -0.373856  -0.043353
    23  H    0.649887   0.073273   0.133150  -0.076563  -1.525454  -0.117651
    24  H   -0.112493   0.047249   0.040386   0.115247  -0.684933   0.200449
    25  H    0.138161  -0.088643   0.067240  -0.071681  -0.526885   0.119192
    26  H    0.350109   0.091570  -0.042045  -0.025989  -0.316234   0.022226
    27  O   -0.005769  -0.004609  -0.002372  -0.000911   0.004487   0.000271
    28  O    0.152469  -0.007063   0.049815   0.014018  -0.176721  -0.047948
    29  O    0.025547   0.009424   0.004788   0.002206  -0.049703  -0.010006
    30  H   -0.003839   0.001505   0.000121   0.000260   0.001587   0.000742
    31  H   -0.078243   0.031391  -0.023895   0.034905   0.008378   0.023644
    32  H   -0.019942  -0.000897   0.000755   0.005653   0.026189  -0.002968
    33  H    0.026364  -0.008994  -0.000117  -0.001184  -0.003867  -0.006679
    34  H   -0.011287  -0.000049  -0.003968  -0.003272   0.012609   0.004123
    35  H    0.043956   0.001854   0.018835  -0.000957  -0.089253  -0.008930
    36  H    0.815116  -0.102843  -0.028886  -0.303737  -0.656398  -0.132322
    37  O   -0.028761  -0.002768  -0.000334  -0.003564   0.030711  -0.005197
    38  H   -0.001997   0.002618   0.000284   0.000314  -0.006612   0.003517
    39  H    0.002810  -0.000950  -0.000097  -0.000110   0.004242  -0.002132
    40  O    0.001347   0.000578   0.000095  -0.000106  -0.000280  -0.000799
    41  H    0.000824  -0.000153   0.000003   0.000029   0.000206  -0.000078
    42  H   -0.001421   0.000998   0.000082  -0.000243  -0.002468   0.000414
              13         14         15         16         17         18
     1  N   -0.149743  -0.066117  -0.029927  -0.187140  -0.000094  -0.016508
     2  C   -0.974865   0.438209  -0.306404  -0.027217   0.057207   0.007581
     3  C    0.323550  -1.458386   0.920550   0.039614  -0.067166  -0.000760
     4  C    0.019447   0.785944  -3.038142  -0.227873   0.177353  -0.038119
     5  C    0.089332  -0.030767   1.491042  -0.341289   0.983772   0.396979
     6  C    0.182213  -0.016814   0.063293  -1.380021  -0.140491   0.255377
     7  C   -0.013493   0.005749   0.034658   0.175018  -2.984738   0.135260
     8  C    0.005428   0.003874  -0.076499   0.138797   0.787179  -1.110589
     9  C    0.000506   0.000485  -0.000000   0.016041  -0.067333   0.179127
    10  C   -0.000233  -0.000480  -0.000623   0.008143   0.122294  -0.221526
    11  N    0.005664   0.000997  -0.005065  -0.297089  -0.659461   0.289485
    12  C    0.001600  -0.009764   0.056746   0.039834  -0.132005   0.071772
    13  H    2.346511  -0.123517  -0.014065   0.030999   0.000943   0.001522
    14  H   -0.123517   2.240569  -0.141485  -0.014103  -0.000275  -0.002183
    15  H   -0.014065  -0.141485   3.177460  -0.020821  -0.172420   0.009037
    16  H    0.030999  -0.014103  -0.020821   4.386773  -0.036449   0.067742
    17  H    0.000943  -0.000275  -0.172420  -0.036449   3.856531  -0.341224
    18  H    0.001522  -0.002183   0.009037   0.067742  -0.341224   2.617065
    19  H   -0.001050   0.001273  -0.007942  -0.197759   0.239296  -0.667416
    20  H    0.000111  -0.000076   0.003274  -0.006683   0.065319  -0.296344
    21  H   -0.000064   0.000022  -0.000896   0.018464  -0.055171   0.171935
    22  H    0.000083  -0.000369   0.002026   0.013507  -0.088398   0.071530
    23  H    0.000055  -0.000030  -0.002774  -0.011869   0.121177  -0.044728
    24  H    0.000544  -0.000511   0.011439   0.013409   0.075132   0.006707
    25  H    0.000143  -0.000978  -0.000916  -0.011040   0.010789   0.002254
    26  H    0.000257  -0.002475  -0.005394   0.020909   0.038809   0.000165
    27  O    0.001912   0.000420   0.000007  -0.017657   0.000600   0.000293
    28  O   -0.000011   0.000032  -0.001240   0.028373   0.004716  -0.002822
    29  O    0.002166  -0.000196   0.000600   0.057513   0.000814   0.000438
    30  H    0.005154  -0.000529   0.000008   0.008693  -0.000194   0.000053
    31  H    0.000373  -0.000105   0.000740   0.002339  -0.001893   0.002778
    32  H    0.003372  -0.000861   0.001343  -0.009217  -0.001018   0.000680
    33  H   -0.075716   0.012865  -0.000870  -0.047439  -0.000508  -0.000999
    34  H   -0.001802   0.000404  -0.000574  -0.014539  -0.000110  -0.000436
    35  H   -0.001807   0.000499  -0.001374   0.017140   0.004188  -0.001420
    36  H   -0.006583   0.002428  -0.005484  -0.020962   0.026844  -0.026221
    37  O   -0.000974   0.001542   0.001856  -0.004628  -0.001253  -0.000044
    38  H    0.003351   0.001235  -0.001188   0.003007  -0.000107   0.000002
    39  H   -0.000697   0.000007   0.000374   0.001201  -0.000167  -0.000055
    40  O    0.027185   0.002332  -0.000336  -0.000357   0.000017  -0.000026
    41  H   -0.000990   0.000084   0.000149  -0.001018   0.000053  -0.000016
    42  H    0.006301  -0.000622  -0.000452   0.008346  -0.000163   0.000131
              19         20         21         22         23         24
     1  N    0.016105  -0.002117   0.002374  -0.001836  -0.001071  -0.006463
     2  C    0.006144   0.002826  -0.002762  -0.002993  -0.000660   0.012331
     3  C   -0.029517  -0.003376   0.001243   0.004188   0.000680  -0.027804
     4  C    0.031393  -0.013941   0.010902   0.019079   0.046647   0.043632
     5  C   -0.047892   0.031554  -0.127869   0.258941  -0.273196   0.052417
     6  C   -0.100874   0.046753  -0.050602   0.026038  -0.000963   0.029577
     7  C   -0.232306  -0.140162   0.371746   0.129885   0.649887  -0.112493
     8  C   -0.087734   0.215764   0.200715   0.002409   0.073273   0.047249
     9  C    0.295943  -0.245880  -0.410619  -0.034454   0.133150   0.040386
    10  C    0.060709   0.185207  -0.058030  -0.380949  -0.076563   0.115247
    11  N   -0.093127  -0.089561   0.048179  -0.373856  -1.525454  -0.684933
    12  C   -0.050594  -0.027149   0.014382  -0.043353  -0.117651   0.200449
    13  H   -0.001050   0.000111  -0.000064   0.000083   0.000055   0.000544
    14  H    0.001273  -0.000076   0.000022  -0.000369  -0.000030  -0.000511
    15  H   -0.007942   0.003274  -0.000896   0.002026  -0.002774   0.011439
    16  H   -0.197759  -0.006683   0.018464   0.013507  -0.011869   0.013409
    17  H    0.239296   0.065319  -0.055171  -0.088398   0.121177   0.075132
    18  H   -0.667416  -0.296344   0.171935   0.071530  -0.044728   0.006707
    19  H    2.317433   0.197405  -0.420963  -0.066312   0.065929   0.003423
    20  H    0.197405   2.101494  -0.607837  -0.267928   0.128363   0.006526
    21  H   -0.420963  -0.607837   2.237477   0.194105  -0.317750  -0.004524
    22  H   -0.066312  -0.267928   0.194105   2.565154  -0.580350   0.019873
    23  H    0.065929   0.128363  -0.317750  -0.580350   3.063685   0.040279
    24  H    0.003423   0.006526  -0.004524   0.019873   0.040279   2.228161
    25  H   -0.011309  -0.003000   0.011452   0.008750  -0.014325  -0.410306
    26  H    0.008565  -0.004050  -0.003265   0.021697   0.034973  -0.451396
    27  O   -0.002853  -0.000194   0.000064   0.000080  -0.000301  -0.000024
    28  O    0.003161  -0.002379  -0.007422  -0.013053   0.099439  -0.006647
    29  O    0.004416   0.000142   0.000251  -0.000221   0.002810  -0.001983
    30  H    0.000267  -0.000000  -0.000031   0.000009  -0.000002   0.000045
    31  H    0.000546  -0.001023   0.004754   0.003435  -0.007912   0.006438
    32  H   -0.001415  -0.000002  -0.000402   0.000238   0.001183   0.000014
    33  H    0.003067   0.000121   0.000136  -0.000189   0.000586  -0.000659
    34  H    0.000753  -0.000036   0.000312  -0.000152  -0.000844  -0.000090
    35  H    0.004616  -0.000157  -0.004327  -0.001549   0.005737  -0.002204
    36  H    0.040460  -0.000173   0.064880   0.032564   0.059651  -0.091289
    37  O   -0.000684  -0.000002   0.000009   0.000237  -0.001782   0.004472
    38  H    0.000476   0.000023   0.000020   0.000079   0.000242   0.002063
    39  H   -0.000028   0.000010  -0.000004  -0.000068  -0.000272  -0.001034
    40  O    0.000020   0.000005   0.000002  -0.000004  -0.000001  -0.000014
    41  H    0.000005   0.000001  -0.000003  -0.000008   0.000008  -0.000053
    42  H   -0.000341  -0.000017   0.000064   0.000054  -0.000064   0.000118
              25         26         27         28         29         30
     1  N    0.004156  -0.003163   0.049256   0.028181  -0.018426  -0.002498
     2  C   -0.012026  -0.040000   0.085591   0.008666   0.031863  -0.017991
     3  C    0.024419   0.058095  -0.009806   0.002159  -0.016181   0.016041
     4  C   -0.097238   0.138320   0.015713  -0.019848   0.027312  -0.011755
     5  C    0.117929  -0.316953  -0.127783  -0.080064   0.013471   0.024857
     6  C   -0.084799   0.098663  -0.091251  -0.066065  -0.101055  -0.010733
     7  C    0.138161   0.350109  -0.005769   0.152469   0.025547  -0.003839
     8  C   -0.088643   0.091570  -0.004609  -0.007063   0.009424   0.001505
     9  C    0.067240  -0.042045  -0.002372   0.049815   0.004788   0.000121
    10  C   -0.071681  -0.025989  -0.000911   0.014018   0.002206   0.000260
    11  N   -0.526885  -0.316234   0.004487  -0.176721  -0.049703   0.001587
    12  C    0.119192   0.022226   0.000271  -0.047948  -0.010006   0.000742
    13  H    0.000143   0.000257   0.001912  -0.000011   0.002166   0.005154
    14  H   -0.000978  -0.002475   0.000420   0.000032  -0.000196  -0.000529
    15  H   -0.000916  -0.005394   0.000007  -0.001240   0.000600   0.000008
    16  H   -0.011040   0.020909  -0.017657   0.028373   0.057513   0.008693
    17  H    0.010789   0.038809   0.000600   0.004716   0.000814  -0.000194
    18  H    0.002254   0.000165   0.000293  -0.002822   0.000438   0.000053
    19  H   -0.011309   0.008565  -0.002853   0.003161   0.004416   0.000267
    20  H   -0.003000  -0.004050  -0.000194  -0.002379   0.000142  -0.000000
    21  H    0.011452  -0.003265   0.000064  -0.007422   0.000251  -0.000031
    22  H    0.008750   0.021697   0.000080  -0.013053  -0.000221   0.000009
    23  H   -0.014325   0.034973  -0.000301   0.099439   0.002810  -0.000002
[...]
 18,0.00027461,0.00000496,0.00030605,-0.00007676,-0.00000640,-0.0000809
 5,0.00003877,-0.00007350,-0.00006373,0.00001984,0.00000479,-0.00003077
 ,0.00012214,-0.00004976,0.00002527,-0.00001685,0.00001617,0.00000936,-
 0.00002494,-0.00000204,-0.00001698,-0.00003171,-0.00000307,0.00002120,
 -0.00002497,-0.00000820,0.00000865,-0.00001417,-0.00000771,-0.00000807
 ,0.00000242,-0.00002771,0.00002497,0.00000290,0.00018255,0.00000807,-0
 .00004934,-0.00009667,0.00004495,-0.00005127,-0.00023635,-0.00032815,0
 .00001859,-0.00156296,0.00080650,0.00112831,0.00005951,0.00006185,-0.0
 0034548,-0.00117718,-0.00112081,-0.00608374,-0.00020541,-0.00017877,-0
 .00004998,-0.00004770,0.00002772,0.00008909,0.00355235,0.00115309,0.00
 978837,0.00098765,0.00072038,-0.00051580,0.00204978,-0.00184209,0.0003
 5157,-0.00008878,0.00013091,0.00036025,-0.00008337,-0.00006706,0.00017
 835,-0.07442628,0.05036094,-0.08766995,0.09918823,-0.06414728,0.103387
 56,-0.00018482,-0.00003153,-0.00004931,-0.00001220,0.00010784,0.000043
 93,-0.00002039,-0.00001029,-0.00005873,0.00000979,0.00002817,-0.000027
 13,0.00008080,0.00001852,0.00004576,0.00015681,-0.00005398,-0.00001769
 ,0.00016488,-0.00021125,0.00007008,-0.00000406,0.00006013,-0.00003223,
 0.00002549,-0.00000528,0.00002343,-0.00008391,0.00007214,-0.00010085,0
 .00016352,-0.00000078,-0.00024005,-0.00031720,0.00006377,0.00010320,-0
 .00000247,0.00000664,-0.00001238,0.00000280,-0.00000607,0.00000858,-0.
 00001656,-0.00004190,0.00000348,0.00002487,-0.00000039,-0.00000298,-0.
 00002930,-0.00000211,0.00000341,0.00001080,0.00000613,-0.00002084,-0.0
 0000234,-0.00000562,-0.00002199,0.00000241,0.00001064,-0.00002132,-0.0
 0000076,0.00000075,-0.00001991,-0.00002318,-0.00001105,0.00000996,-0.0
 0001404,0.00001948,0.00001404,0.00004586,0.00003349,-0.00006659,-0.000
 24430,0.00010765,-0.00001397,0.00009016,-0.00037217,0.00049254,-0.0001
 2364,-0.00008910,0.00005513,-0.00053785,-0.00014156,-0.00024932,-0.000
 47209,0.00146875,0.00120325,0.00002541,-0.00000163,-0.00002533,-0.0000
 3349,-0.00000052,0.00009384,-0.00042826,-0.00306552,-0.00019915,0.0000
 7161,0.00011729,0.00001790,-0.00001917,0.00005166,-0.00008079,0.000983
 65,-0.00014260,-0.00005418,0.00021282,0.00027016,0.00027596,-0.0640488
 4,-0.03914864,0.12173574,0.01110667,0.01448836,-0.03485050,0.05672840,
 -0.00005408,-0.00010258,-0.00001447,-0.00001118,0.00009951,0.00006561,
 0.00007162,0.00002891,-0.00002818,-0.00005177,0.00003517,-0.00002415,-
 0.00004282,0.00001526,-0.00003511,0.00012344,-0.00001580,-0.00000308,-
 0.00002302,0.00000912,0.00000153,-0.00000077,-0.00001106,0.00001570,0.
 00002055,0.00000211,-0.00000594,-0.00004907,0.00005563,-0.00003305,0.0
 0013185,-0.00013517,-0.00005526,-0.00021689,0.00011798,-0.00005437,0.0
 0000680,-0.00000391,0.00002911,-0.00000851,-0.00006086,0.00003832,-0.0
 0002742,-0.00001321,0.00002555,-0.00001407,-0.00000141,0.00000455,-0.0
 0000667,-0.00000872,0.00000309,0.00000055,-0.00000039,0.00000014,0.000
 00025,-0.00000097,-0.00000009,0.00000512,0.00000103,-0.00000460,0.0000
 0253,-0.00000658,-0.00000845,-0.00000041,-0.00000191,0.00000307,0.0000
 0717,-0.00001467,-0.00000169,-0.00005161,-0.00004377,0.00000059,0.0001
 1086,-0.00003596,-0.00000312,-0.00008896,0.00003273,0.00019747,-0.0000
 8948,-0.00010366,-0.00014965,0.00022994,-0.00013894,0.00003227,0.00205
 977,-0.00429692,-0.00398400,0.00001802,0.00005761,-0.00000353,0.000040
 84,0.00005864,-0.00006545,-0.00172852,0.00740451,0.00092744,0.00004011
 ,0.00002783,0.00006169,0.00005019,0.00014860,0.00035057,-0.00061563,-0
 .00007972,-0.00011395,0.00009168,0.00015646,0.00006289,-0.01849073,-0.
 09407241,0.18302463,-0.00805244,-0.00632859,0.01610188,0.02602384,0.09
 712968,-0.00010326,-0.00014338,-0.00003167,0.00000594,0.00008616,-0.00
 000696,-0.00005277,0.00001755,-0.00000525,0.00003677,0.00002229,0.0000
 3348,0.00000275,-0.00002261,-0.00002118,0.00006244,-0.00001926,-0.0000
 2809,0.00008613,-0.00001051,0.00001745,-0.00000058,0.00002652,-0.00001
 388,-0.00000157,-0.00000097,0.00001074,0.00005139,0.00000725,-0.000007
 58,-0.00011496,-0.00010803,-0.00014455,-0.00005222,-0.00002732,0.00001
 909,-0.00000707,0.00003086,-0.00000661,0.00000241,-0.00001156,0.000012
 77,-0.00002063,-0.00000882,-0.00000191,0.00000564,0.00000963,-0.000004
 64,-0.00001795,-0.00001504,-0.00000777,-0.00000236,-0.00000352,-0.0000
 0481,0.00000156,0.00000193,-0.00001747,-0.00000831,-0.00000187,-0.0000
 0311,0.00000483,0.00000369,-0.00000690,-0.00001794,-0.00001488,-0.0000
 0507,0.00000080,0.00000924,0.00000804,-0.00008931,-0.00004381,0.000004
 68,-0.00001330,0.00003534,0.00004542,0.00013984,0.00002999,0.00014675,
 -0.00009251,-0.00015639,0.00021935,-0.00060221,-0.00018324,0.00002078,
 -0.00033143,-0.00103841,0.00062743,-0.00001878,-0.00002046,-0.00004793
 ,0.00002612,-0.00003349,-0.00001569,0.00118429,0.00231862,-0.00421932,
 0.00014945,0.00018864,0.00002602,-0.00013929,0.00022429,-0.00008212,0.
 00090675,-0.00004793,-0.00018359,0.00022841,0.00031743,0.00017584,0.07
 776208,0.19044317,-0.43444458,0.00848796,0.00474540,-0.01341023,-0.087
 68310,-0.19620122,0.45050468,-0.00079782,-0.00089693,0.00036476,-0.001
 03542,0.00004447,0.00036296,0.00028388,0.00012234,0.00022356,-0.000150
 82,0.00023167,0.00004800,-0.00005900,-0.00022638,-0.00027679,0.0007558
 2,-0.00031228,0.00008483,0.00016120,0.00008361,-0.00000996,-0.00000569
 ,0.00003783,-0.00003717,-0.00001830,-0.00000857,0.00001825,0.00021731,
 -0.00004746,0.00002543,-0.00036595,-0.00013349,-0.00006366,0.00023024,
 -0.00007936,-0.00002378,-0.00062100,-0.00004552,0.00005771,-0.00008352
 ,-0.00005361,-0.00001273,-0.00001560,0.00002136,-0.00001997,0.00004708
 ,0.00001845,-0.00001718,-0.00003397,-0.00002124,-0.00002256,-0.0000162
 5,-0.00001719,0.,0.00001101,0.00000979,-0.00002563,-0.00003171,-0.0000
 1051,0.00000694,0.00000944,0.00001806,0.00000078,-0.00002297,-0.000017
 28,-0.00001647,0.00000350,0.00001116,0.00000412,-0.00011816,-0.0000360
 0,0.00002220,0.00004766,-0.00000123,0.00003162,0.00011585,0.00016309,0
 .00000979,0.00038860,0.00286204,0.00811500,-0.00102116,-0.00014850,0.0
 0019236,-0.00127999,0.00109094,0.00175723,-0.00223170,0.00010987,0.000
 56882,0.00003663,-0.00010953,-0.00006974,0.00132992,-0.00213675,-0.002
 49558,0.00071249,0.00046083,-0.00082448,0.00007045,-0.00042154,-0.0005
 5496,0.00175547,0.00003412,-0.00037233,0.00025673,0.00029953,0.0001322
 1,-0.01364614,0.00722205,-0.01281660,-0.00004044,0.00099918,0.00782811
 ,-0.00299797,0.00050250,0.00029025,0.57661101,0.00002020,0.00082785,0.
 00039081,0.00141251,-0.00124033,0.00061074,-0.00085466,0.00026617,0.00
 005063,0.00034977,-0.00022768,-0.00020127,-0.00006551,0.00035483,0.000
 25918,-0.00048032,-0.00014323,-0.00032553,0.00023930,-0.00025955,0.000
 21429,-0.00004365,0.00007471,-0.00008787,-0.00000186,-0.00003942,0.000
 03156,-0.00004780,0.00004107,-0.00005557,0.00010374,0.00039900,0.00009
 505,-0.00009958,0.00005425,0.00005530,-0.00029979,0.00052746,-0.000280
 98,0.00007974,0.00009077,0.00008314,-0.00007301,-0.00000401,-0.0000155
 4,-0.00012743,-0.00002047,0.00005639,-0.00001792,0.00004711,-0.0000057
 6,0.00001661,0.00001039,-0.00000908,0.00000811,-0.00002518,-0.00001207
 ,-0.00000749,0.00002206,-0.00000892,-0.00002464,0.00002059,0.00000520,
 0.00000801,0.00000537,0.00000950,-0.00003573,0.00002373,-0.00001137,0.
 00007741,0.00001345,0.00000025,-0.00006168,0.00003319,-0.00003056,-0.0
 0007842,-0.00015558,0.00002807,0.00227884,0.00286257,-0.00340876,0.001
 28107,0.00058177,-0.00003115,0.00173639,0.00007819,-0.00071819,0.00087
 829,0.00005703,0.00019894,-0.00003940,0.00002495,0.00001608,-0.0012625
 2,0.00028671,0.00074549,-0.00036203,-0.00264101,-0.00132914,-0.0008013
 6,-0.00016510,0.00040779,-0.00208513,-0.00019664,0.00041969,-0.0003965
 2,-0.00074839,-0.00036969,0.00515223,0.00293846,0.00355876,0.00044014,
 -0.00792767,-0.00080615,0.00010569,-0.00020224,-0.00070659,0.05606523,
 0.12327906,0.00146503,0.00121556,0.00048222,-0.00002530,0.00006138,-0.
 00036098,0.00025680,-0.00008752,0.00007581,0.00021845,-0.00005872,0.00
 018295,0.00024252,0.00014896,0.00027205,-0.00082493,0.00034119,-0.0000
 7375,-0.00021839,0.00028069,-0.00011651,-0.00000740,-0.00008702,0.0000
 2564,-0.00001784,0.00002141,-0.00003296,0.00000629,-0.00007486,0.00006
 969,0.00000899,-0.00002003,0.00020177,0.00025337,-0.00010329,-0.000228
 02,0.00005708,-0.00043566,-0.00028956,0.00006418,0.00015594,-0.0000290
 1,0.00008638,0.00003904,-0.00000158,-0.00010615,-0.00001861,-0.0001355
 8,0.00006317,-0.00001011,0.00002724,-0.00000897,-0.00000294,0.00002346
 ,-0.00000341,0.00001487,0.00004267,0.00001291,-0.00001217,0.00002163,-
 0.00000057,-0.00000873,0.00001295,0.00001928,0.00001816,0.00000589,0.0
 0001924,-0.00002757,-0.00000726,-0.00007410,0.00001673,0.00003839,0.00
 006331,-0.00004480,0.00002167,0.00013779,0.00018314,-0.00008303,0.0091
 8820,-0.00394904,-0.00845483,0.00014849,0.00000172,0.00031916,0.000751
 88,0.00011996,0.00414205,0.00184778,0.00031998,0.00085278,0.00000059,0
 .00001750,-0.00007512,0.00113557,-0.00212763,-0.00455063,-0.00316781,-
 0.00306850,-0.00088591,-0.00266606,0.00227953,-0.00309199,-0.00009988,
 0.00005431,-0.00014144,-0.00009860,-0.00012987,-0.00022275,-0.01376846
 ,0.00487987,-0.00030945,0.00784951,0.00109242,-0.00756132,0.00053171,-
 0.00047294,0.00115552,-0.16415569,0.18177583,0.48321470,0.00016979,0.0
 0009511,0.00003244,-0.00009333,0.00004107,-0.00004079,0.00010682,-0.00
 000145,0.00004506,-0.00002993,0.00002071,0.00001237,0.00001398,-0.0000
 0048,0.00000040,-0.00002841,0.00002350,0.00001761,-0.00004046,-0.00000
 391,-0.00000660,0.00000099,-0.00001280,0.00000728,0.00000208,0.0000023
 9,-0.00000520,-0.00004851,0.00000495,0.00000061,0.00008469,0.00004201,
 0.00002884,-0.00002111,0.00000439,-0.00001160,-0.00003409,-0.00009093,
 0.00002020,0.00000172,-0.00000949,0.00001000,0.00000982,-0.00000239,0.
 00000385,-0.00001367,-0.00001111,0.00000294,0.00000996,0.00000430,0.00
 000704,0.00000345,0.00000368,0.00000169,-0.00000205,-0.00000198,0.0000
 0875,0.00000787,0.00000237,0.00000061,-0.00000302,-0.00000436,0.000001
 32,0.00000639,0.00000545,0.00000412,-0.00000071,-0.00000390,-0.0000018
 3,0.00001482,0.00001058,0.00000080,-0.00000668,-0.00000279,-0.00000586
 ,-0.00001056,-0.00001472,-0.00000573,0.00115491,-0.00016007,-0.0007227
 0,0.00030242,0.00005899,-0.00001965,0.00045451,-0.00007899,-0.00006115
 ,0.00000257,0.00004485,0.00005156,-0.00001007,0.00002332,0.00001235,-0
 .00021320,0.00004505,0.00013301,-0.00041703,-0.00036233,-0.00008784,-0
 .00029326,0.00008976,-0.00007242,-0.00050059,-0.00000423,0.00009410,-0
 .00007813,-0.00010784,-0.00006434,0.00100499,0.00034141,-0.00053813,-0
 .00216041,-0.00100094,0.00124243,-0.00053606,0.00011173,-0.00024915,-0
 .50142323,-0.06430931,0.14011337,0.50884451,0.00000675,-0.00015959,-0.
 00002116,-0.00024954,0.00005782,0.00005956,0.00014721,0.00003316,0.000
 09905,-0.00008217,0.00008547,0.00000401,-0.00004611,-0.00009118,-0.000
 09419,0.00016963,-0.00006852,0.00005423,-0.00000305,0.00002916,-0.0000
 1761,0.00000023,-0.00000154,0.00000076,0.00000089,0.00000450,0.0000007
 6,0.00001360,0.00000229,0.00000309,-0.00003020,-0.00005843,-0.00002093
 ,0.00000775,0.00000487,-0.00000142,-0.00023117,0.00015569,0.00003096,-
 0.00004820,-0.00004066,0.00000085,-0.00000298,0.00000830,-0.00000295,0
 .00000644,0.00000337,-0.00000332,-0.00000255,-0.00000628,-0.00000181,-
 0.00000312,-0.00000304,0.00000122,-0.00000035,0.00000417,0.00000026,-0
 .00000125,-0.00000196,0.00000101,0.00000252,-0.00000126,-0.00000184,-0
 .00000230,-0.00000216,-0.00000213,0.00000231,-0.00000355,0.00000190,-0
 .00001075,-0.00000356,0.00000005,0.00000970,-0.00000456,0.00000270,0.0
 0000411,0.00001587,0.00000049,0.00016423,-0.00077836,-0.00120193,-0.00
 016764,-0.00008917,0.00000350,-0.00016642,-0.00017323,0.00015868,0.000
 25062,0.00015641,-0.00020070,0.00001181,0.00000631,-0.00000578,0.00005
 764,0.00014747,-0.00011207,-0.00009376,0.00004509,0.00003765,-0.000058
 16,0.00027443,-0.00011831,0.00025000,0.00001985,-0.00006130,0.00006124
 ,0.00010974,0.00005518,0.00066079,-0.00072571,0.00106913,-0.00000983,-
 0.00001260,-0.00153406,0.00043807,0.00020180,0.00029811,-0.08980142,-0
 .02103528,0.00870719,0.06953543,0.01978017,-0.00003992,-0.00002378,-0.
 00002630,0.00015223,0.00005616,0.00001443,-0.00008735,0.00004918,0.000
 01497,0.00003261,-0.00001022,-0.00002469,-0.00000594,0.00000982,0.0000
 1296,0.00005805,-0.00002200,-0.00002008,0.00004397,-0.00001539,0.00002
 277,-0.00000354,0.00001327,-0.00000935,-0.00000116,-0.00000269,0.00000
 590,0.00002582,0.00000054,-0.00000081,-0.00004786,-0.00001191,-0.00003
 344,0.00001163,-0.00000400,0.00002075,0.00004528,0.00005118,0.00002467
 ,-0.00000974,-0.00001495,0.00001438,-0.00001783,-0.00000353,0.00000223
 ,-0.00000190,0.00000060,0.00000100,-0.00000949,-0.00000191,-0.00000545
 ,0.00000033,-0.00000135,-0.00000076,0.00000099,-0.00000152,-0.00000673
 ,-0.00000471,0.00000003,-0.00000073,0.00000067,0.00000254,-0.00000079,
 -0.00000542,-0.00000451,-0.00000352,-0.00000170,0.00000465,0.00000123,
 -0.00001643,-0.00000761,0.00000160,-0.00000068,0.00000517,0.00000388,0
 .00000826,0.00001149,0.00001257,-0.00005339,-0.00099727,-0.00189536,-0
 .00012439,-0.00001596,-0.00000704,-0.00017148,0.00010186,0.00005634,0.
 00066005,-0.00015543,-0.00025544,0.00000315,-0.00001357,0.00000372,0.0
 0012828,-0.00019497,-0.00006406,-0.00022474,0.00003358,0.00019766,0.00
 006493,-0.00003644,-0.00002540,0.00020463,-0.00000431,-0.00003299,0.00
 004001,0.00004311,0.00003279,-0.00233596,0.00179236,-0.00283453,0.0019
 5635,-0.00271307,0.00503238,-0.00086965,0.00028483,-0.00004747,0.09516
 614,-0.00428073,-0.07048292,-0.13545353,-0.00274944,0.07630582,0.00101
 679,0.00130457,0.00013062,0.00065432,-0.00094659,-0.00019258,-0.000214
 02,0.00006468,0.00014465,0.00025575,-0.00011576,-0.00000137,0.00009925
 ,0.00021230,0.00035791,-0.00079969,0.00030541,-0.00014370,-0.00011567,
 0.00007379,0.00001258,-0.00001731,-0.00004291,0.00000167,-0.00000348,0
 .00000660,-0.00001524,-0.00008926,-0.00001062,0.00002082,0.00016212,0.
 00014497,0.00015805,0.00004319,-0.00001568,-0.00010425,0.00003717,0.00
 009123,-0.00016360,0.00006502,0.00009482,0.00004151,0.00002015,0.00002
 766,-0.00000645,-0.00011030,-0.00000765,-0.00008548,0.00004697,0.00001
 213,0.00002286,0.00000733,0.00000838,0.00001381,-0.00000286,-0.0000022
 9,0.00003199,0.00001788,0.00000294,0.00000815,-0.00001212,-0.00000810,
 0.00000866,0.00002134,0.00001709,0.00001096,-0.00000007,-0.00001418,-0
 .00000901,0.00000734,0.00002395,0.00001475,0.00000472,-0.00001798,-0.0
 0000753,0.00002466,0.00002067,-0.00004195,-0.00334098,-0.00178040,-0.0
 0408630,0.00088686,0.00021318,0.00009737,0.00158201,-0.00051033,0.0016
 6553,0.00372229,-0.00001496,-0.00095540,-0.00001205,0.00006841,-0.0000
 1093,-0.00003882,-0.00035554,-0.00198913,-0.00457055,-0.00288839,0.002
 29977,-0.00243536,0.00210244,-0.00121149,-0.00142344,-0.00006916,0.000
 22738,-0.00025768,-0.00039325,-0.00029071,-0.00362970,0.00211734,0.000
 66443,0.00542799,-0.00364036,-0.00188917,0.00024619,-0.00002531,0.0001
 8292,-0.05702749,0.00132250,0.02070167,-0.00623178,0.01921002,0.040883
 44,0.06598328,-0.00002994,-0.00115993,-0.00062243,-0.00133365,-0.00001
 551,-0.00022517,0.00045347,-0.00024572,-0.00013036,-0.00001774,0.00004
 813,0.00008327,0.00011915,-0.00009132,0.00000743,0.00005492,0.00031631
 ,0.00018543,-0.00014212,0.00013585,-0.00009777,0.00002982,-0.00003598,
 0.00005634,0.00000633,0.00002369,-0.00001490,0.00001441,-0.00001030,0.
 00001795,-0.00005428,-0.00028961,-0.00011749,-0.00001353,-0.00001028,0
 .00001580,0.00004189,-0.00071239,-0.00003822,-0.00002103,-0.00001704,-
 0.00004104,0.00004725,-0.00001184,0.00001017,0.00012871,0.00003678,-0.
 00004376,0.00001261,-0.00003348,0.00000334,-0.00000907,-0.00000637,0.0
 0000164,-0.00000580,0.00001490,0.00000270,0.00000575,-0.00001231,0.000
 00031,0.00001797,-0.00001507,-0.00000792,-0.00000944,-0.00000642,-0.00
 000625,0.00002331,-0.00001194,0.00001063,-0.00001759,-0.00000890,-0.00
 001294,0.00002347,-0.00001372,0.00001644,0.00000460,0.00004329,-0.0000
 0492,-0.00122254,-0.00573866,0.00056700,-0.00101617,-0.00045423,-0.000
 05864,-0.00168352,-0.00022012,-0.00065284,-0.00073410,-0.00040147,-0.0
 0010150,0.00002196,-0.00002146,0.00001595,0.00041184,0.00063812,0.0011
 5081,-0.00139377,0.00390157,0.00330558,0.00207741,-0.00058900,0.000191
 72,0.00164206,0.00017449,-0.00031186,0.00030380,0.00059103,0.00033418,
 0.00171932,-0.00146288,-0.00048426,-0.00250259,0.00189521,0.00061908,-
 0.00015718,0.00009688,0.00000318,0.02411668,-0.09788894,-0.19100540,-0
 .00432705,0.00211470,0.00882619,-0.01658563,0.09945393,-0.00128138,-0.
 00172984,-0.00107194,-0.00090602,0.00045793,0.00005086,0.00017454,-0.0
 0018523,-0.00024273,-0.00021646,0.00004458,-0.00002717,-0.00013034,-0.
 00019603,-0.00023931,0.00059559,-0.00016381,0.00008298,0.00005485,-0.0
 0011925,-0.00000574,0.00003741,0.00003420,0.00002978,0.00001198,-0.000
 00273,0.00000871,0.00001833,0.00002892,-0.00002333,-0.00004932,-0.0001
 1584,-0.00016587,-0.00012810,0.00003675,0.00013510,0.00007351,-0.00016
 248,0.00036490,-0.00007569,-0.00011471,-0.00004776,-0.00001661,-0.0000
 3376,0.00000354,0.00020664,0.00003068,0.00010019,-0.00004461,-0.000006
 28,-0.00002469,-0.00000192,-0.00000184,-0.00001527,-0.00000135,-0.0000
 0337,-0.00002990,-0.00000880,0.00000073,-0.00001293,0.00001199,-0.0000
 0226,-0.00000912,-0.00001493,-0.00001486,-0.00000902,0.00000012,0.0000
 1358,0.00000864,0.00002451,-0.00001559,-0.00002472,-0.00002014,0.00002
 042,-0.00000272,-0.00006102,-0.00006225,0.00003822,-0.00809756,0.00138
 622,-0.00020291,-0.00035530,-0.00015053,-0.00028878,-0.00105185,0.0004
 9710,-0.00370528,-0.00096674,-0.00049017,-0.00191639,0.00002334,-0.000
 02714,0.00005696,-0.00165285,0.00156807,0.00227034,0.00609961,0.005529
 28,0.00122101,0.00289307,-0.00268009,0.00467153,0.00037539,-0.00004764
 ,0.00005629,0.00021364,0.00032832,0.00027167,0.00268784,-0.00088052,0.
 00087198,-0.00390822,-0.00059725,-0.00487521,-0.00001394,0.00003137,-0
 .00025966,0.06650421,-0.17631780,-0.39405362,-0.00450622,-0.00443940,-
 0.00600420,-0.05649721,0.17855254,0.40301557\\0.00000079,-0.00000007,0
 .00000046,-0.00000069,-0.00000015,0.00000130,0.00000087,-0.00000105,0.
 00000136,-0.00000141,0.00000034,0.00000108,-0.00000048,0.00000028,0.00
 000053,-0.00000070,0.00000154,0.00000051,0.00000066,0.00000026,0.00000
 001,-0.00000049,0.00000031,-0.00000089,0.00000006,0.00000104,-0.000001
 26,-0.00000016,-0.00000045,-0.00000060,-0.00000022,-0.00000029,0.00000
 006,0.00000012,-0.00000060,-0.00000078,-0.00000096,-0.00000019,0.00000
 148,-0.00000016,-0.00000034,0.00000200,0.,-0.00000046,0.00000111,-0.00
 000036,0.00000051,-0.00000034,-0.00000024,-0.00000001,0.00000023,-0.00
 000032,0.00000115,0.00000018,-0.00000027,0.00000117,0.00000004,-0.0000
 0033,0.00000084,-0.00000078,-0.00000024,0.00000102,-0.00000103,0.00000
 054,0.00000019,-0.00000047,0.00000024,0.00000023,-0.00000137,0.0000005
 3,-0.00000082,-0.00000023,0.00000061,-0.00000075,-0.00000092,0.0000003
 4,-0.00000087,-0.00000003,-0.00000015,0.00000046,0.00000036,0.00000032
 ,0.00000014,-0.00000101,0.00000030,0.00000054,-0.00000108,-0.00000039,
 0.00000071,-0.00000002,-0.00000005,0.00000066,-0.00000136,0.00000003,-
 0.00000095,0.00000030,-0.00000023,0.00000034,0.00000022,0.00000002,-0.
 00000058,0.00000007,0.00000008,0.00000007,-0.00000078,0.00000016,-0.00
 000012,-0.00000059,0.00000037,-0.00000032,-0.00000098,0.00000074,-0.00
 000102,0.00000049,0.00000056,-0.00000160,0.00000049,-0.00000006,-0.000
 00006,0.00000132,0.00000022,-0.00000098,0.00000088,0.00000037,-0.00000
 013,0.00000005\\\@


 WHAT THE SLIME CONTAINS, THE GLOWING REVEALS
 BY THE FLAME'S BRIGHT HUE WHEN YOU IGNITE IT.
   --  LEONARD THURNEYSSER, 1531-1596
 DESCRIBING HIS FLAME PHOTOLYSIS ANALYTIC METHOD
 Job cpu time:       1 days 20 hours 44 minutes 31.0 seconds.
 Elapsed time:       0 days  1 hours 35 minutes 56.6 seconds.
 File lengths (MBytes):  RWF=   1440 Int=      0 D2E=      0 Chk=     36 Scr=      8
 Normal termination of Gaussian 16 at Wed Apr 26 16:52:06 2023.
