 Entering Gaussian System, Link 0=g16
 Input=Nic5h3bMidATS1_2.gjf
 Output=Nic5h3bMidATS1_2.log
 Initial command:
 /sw/contrib/gaussian/g16/A03/g16/l1.exe "/gscratch/scrubbed/gds001/Gau-24906.inp" -scrdir="/gscratch/scrubbed/gds001/"
 Entering Link 1 = /sw/contrib/gaussian/g16/A03/g16/l1.exe PID=     24907.
  
 Copyright (c) 1988,1990,1992,1993,1995,1998,2003,2009,2016,
            Gaussian, Inc.  All Rights Reserved.
  
 This is part of the Gaussian(R) 16 program.  It is based on
 the Gaussian(R) 09 system (copyright 2009, Gaussian, Inc.),
 the Gaussian(R) 03 system (copyright 2003, Gaussian, Inc.),
 the Gaussian(R) 98 system (copyright 1998, Gaussian, Inc.),
 the Gaussian(R) 94 system (copyright 1995, Gaussian, Inc.),
 the Gaussian 92(TM) system (copyright 1992, Gaussian, Inc.),
 the Gaussian 90(TM) system (copyright 1990, Gaussian, Inc.),
 the Gaussian 88(TM) system (copyright 1988, Gaussian, Inc.),
 the Gaussian 86(TM) system (copyright 1986, Carnegie Mellon
 University), and the Gaussian 82(TM) system (copyright 1983,
 Carnegie Mellon University). Gaussian is a federally registered
 trademark of Gaussian, Inc.
  
 This software contains proprietary and confidential information,
 including trade secrets, belonging to Gaussian, Inc.
  
 This software is provided under written license and may be
 used, copied, transmitted, or stored only in accord with that
 written license.
  
 The following legend is applicable only to US Government
 contracts under FAR:
  
                    RESTRICTED RIGHTS LEGEND
  
 Use, reproduction and disclosure by the US Government is
 subject to restrictions as set forth in subparagraphs (a)
 and (c) of the Commercial Computer Software - Restricted
 Rights clause in FAR 52.227-19.
  
 Gaussian, Inc.
 340 Quinnipiac St., Bldg. 40, Wallingford CT 06492
  
  
 ---------------------------------------------------------------
 Warning -- This program may not be used in any manner that
 competes with the business of Gaussian, Inc. or will provide
 assistance to any competitor of Gaussian, Inc.  The licensee
 of this program is prohibited from giving any competitor of
 Gaussian, Inc. access to this program.  By using this program,
 the user acknowledges that Gaussian, Inc. is engaged in the
 business of creating and licensing software in the field of
 computational chemistry and represents and warrants to the
 licensee that it is not a competitor of Gaussian, Inc. and that
 it will not use this program in any manner prohibited above.
 ---------------------------------------------------------------
  

 Cite this work as:
 Gaussian 16, Revision A.03,
 M. J. Frisch, G. W. Trucks, H. B. Schlegel, G. E. Scuseria, 
 M. A. Robb, J. R. Cheeseman, G. Scalmani, V. Barone, 
 G. A. Petersson, H. Nakatsuji, X. Li, M. Caricato, A. V. Marenich, 
 J. Bloino, B. G. Janesko, R. Gomperts, B. Mennucci, H. P. Hratchian, 
 J. V. Ortiz, A. F. Izmaylov, J. L. Sonnenberg, D. Williams-Young, 
 F. Ding, F. Lipparini, F. Egidi, J. Goings, B. Peng, A. Petrone, 
 T. Henderson, D. Ranasinghe, V. G. Zakrzewski, J. Gao, N. Rega, 
 G. Zheng, W. Liang, M. Hada, M. Ehara, K. Toyota, R. Fukuda, 
 J. Hasegawa, M. Ishida, T. Nakajima, Y. Honda, O. Kitao, H. Nakai, 
 T. Vreven, K. Throssell, J. A. Montgomery, Jr., J. E. Peralta, 
 F. Ogliaro, M. J. Bearpark, J. J. Heyd, E. N. Brothers, K. N. Kudin, 
 V. N. Staroverov, T. A. Keith, R. Kobayashi, J. Normand, 
 K. Raghavachari, A. P. Rendell, J. C. Burant, S. S. Iyengar, 
 J. Tomasi, M. Cossi, J. M. Millam, M. Klene, C. Adamo, R. Cammi, 
 J. W. Ochterski, R. L. Martin, K. Morokuma, O. Farkas, 
 J. B. Foresman, and D. J. Fox, Gaussian, Inc., Wallingford CT, 2016.
 
 ******************************************
 Gaussian 16:  ES64L-G16RevA.03 25-Dec-2016
                24-Apr-2023 
 ******************************************
 %nprocshared=28
 Will use up to   28 processors via shared memory.
 %mem=41GB
 ----------------------------------------------------------------
 # wB97XD/aug-cc-pVDZ opt=(TS,CalcAll,MaxStep=5,NoEigenTest) freq
 ----------------------------------------------------------------
 1/5=1,8=5,10=4,11=1,18=20,26=3,38=1/1,3;
 2/9=110,12=2,17=6,18=5,40=1/2;
 3/5=16,7=10,11=2,25=1,30=1,71=2,74=-58,140=1/1,2,3;
 4//1;
 5/5=2,38=5/2;
 8/6=4,10=90,11=11/1;
 11/6=1,8=1,9=11,15=111,16=1/1,2,10;
 10/6=1/2;
 6/7=2,8=2,9=2,10=2,18=1,28=1/1;
 7/10=1,25=1/1,2,3,16;
 1/5=1,8=5,10=4,11=1,18=20,26=3/3(3);
 2/9=110/2;
 7/8=1,9=1,25=1,44=-1/16;
 99//99;
 2/9=110/2;
 3/5=16,7=10,11=2,25=1,30=1,71=2,74=-58,140=1/1,2,3;
 4/5=5,16=3,69=1/1;
 5/5=2,38=5/2;
 8/6=4,10=90,11=11/1;
 11/6=1,8=1,9=11,15=111,16=1/1,2,10;
 10/6=1/2;
 7/10=1,25=1/1,2,3,16;
 1/5=1,8=5,10=4,11=1,18=20,26=3/3(-8);
 2/9=110/2;
 6/7=2,8=2,9=2,10=2,18=1,19=2,28=1/1;
 7/8=1,9=1,25=1,44=-1/16;
 99//99;
 ----
 blah
 ----
 Symbolic Z-matrix:
 Charge =  1 Multiplicity = 1
 N1                   -1.21786   1.44355  -0.90287 
 C2                   -1.48803   2.56384  -0.22036 
 C3                   -0.55099   3.16383   0.60834 
 C4                    0.70037   2.5662    0.74329 
 C5                    0.99473   1.40072   0.03678 
 C6                   -0.00839   0.88601  -0.78336 
 C7                    2.32968   0.70712   0.16458 
 C8                    3.10359   0.49696  -1.14991 
 C9                    3.92112  -0.79623  -0.91788 
 C10                   3.54374  -1.23725   0.50101 
 N11                   2.20855  -0.65759   0.71269 
 C12                   1.78483  -0.68993   2.10875 
 H13                  -2.48432   2.98491  -0.34766 
 H14                  -0.80134   4.07662   1.14482 
 H15                   1.44979   3.00857   1.40059 
 H16                   0.15896  -0.02194  -1.36345 
 H17                   2.95423   1.30773   0.85354 
 H18                   3.73163   1.36627  -1.37041 
 H19                   2.41052   0.37661  -1.99044 
 H20                   4.99924  -0.63144  -1.0094 
 H21                   3.64314  -1.56276  -1.65001 
 H22                   4.2538   -0.83031   1.24342 
 H23                   3.50986  -2.32583   0.63355 
 H24                   2.47666  -0.1238    2.75754 
 H25                   1.75163  -1.72915   2.45564 
 H26                   0.77887  -0.26411   2.20509 
 O27                  -2.92414  -0.25408  -1.82666 
 O28                   0.54892  -2.29495  -0.65715 
 O29                  -2.02773  -2.21288  -0.77281 
 H30                  -3.07415  -0.28112  -2.77786 
 H31                   1.01236  -3.12024  -0.81391 
 H32                  -2.4368   -2.28205   0.13158 
 H33                  -2.27328   0.52827  -1.57264 
 H34                  -2.54182  -1.14704  -1.38337 
 H35                  -1.03277  -2.26408  -0.69563 
 H36                   1.1616   -1.68669  -0.13985 
 O37                  -3.24305  -2.10302   1.51887 
 H38                  -3.67649  -1.22867   1.50418 
 H39                  -3.87212  -2.72858   1.88511 
 O40                  -4.29176   0.33276   0.82047 
 H41                  -5.08327   0.77085   1.14537 
 H42                  -4.43245   0.19616  -0.12369 
 
 Add virtual bond connecting atoms H34        and O29        Dist= 2.52D+00.
 Add virtual bond connecting atoms H33        and N1         Dist= 2.93D+00.
 Add virtual bond connecting atoms N11        and H36        Dist= 3.21D+00.
 Add virtual bond connecting atoms H35        and O28        Dist= 2.99D+00.
 Add virtual bond connecting atoms O37        and H32        Dist= 3.05D+00.
 Add virtual bond connecting atoms O40        and H38        Dist= 3.42D+00.

 GradGradGradGradGradGradGradGradGradGradGradGradGradGradGradGradGradGrad
 Berny optimization.
 Initialization pass.
                           ----------------------------
                           !    Initial Parameters    !
                           ! (Angstroms and Degrees)  !
 --------------------------                            --------------------------
 ! Name  Definition              Value          Derivative Info.                !
 --------------------------------------------------------------------------------
 ! R1    R(1,2)                  1.3394         calculate D2E/DX2 analytically  !
 ! R2    R(1,6)                  1.3371         calculate D2E/DX2 analytically  !
 ! R3    R(1,33)                 1.5493         calculate D2E/DX2 analytically  !
 ! R4    R(2,3)                  1.3874         calculate D2E/DX2 analytically  !
 ! R5    R(2,13)                 1.0891         calculate D2E/DX2 analytically  !
 ! R6    R(3,4)                  1.3933         calculate D2E/DX2 analytically  !
 ! R7    R(3,14)                 1.088          calculate D2E/DX2 analytically  !
 ! R8    R(4,5)                  1.3943         calculate D2E/DX2 analytically  !
 ! R9    R(4,15)                 1.0906         calculate D2E/DX2 analytically  !
 ! R10   R(5,6)                  1.3942         calculate D2E/DX2 analytically  !
 ! R11   R(5,7)                  1.5098         calculate D2E/DX2 analytically  !
 ! R12   R(6,16)                 1.0904         calculate D2E/DX2 analytically  !
 ! R13   R(7,8)                  1.5398         calculate D2E/DX2 analytically  !
 ! R14   R(7,11)                 1.4756         calculate D2E/DX2 analytically  !
 ! R15   R(7,17)                 1.107          calculate D2E/DX2 analytically  !
 ! R16   R(8,9)                  1.5474         calculate D2E/DX2 analytically  !
 ! R17   R(8,18)                 1.0949         calculate D2E/DX2 analytically  !
 ! R18   R(8,19)                 1.096          calculate D2E/DX2 analytically  !
 ! R19   R(9,10)                 1.533          calculate D2E/DX2 analytically  !
 ! R20   R(9,20)                 1.0945         calculate D2E/DX2 analytically  !
 ! R21   R(9,21)                 1.0958         calculate D2E/DX2 analytically  !
 ! R22   R(10,11)                1.4709         calculate D2E/DX2 analytically  !
 ! R23   R(10,22)                1.105          calculate D2E/DX2 analytically  !
 ! R24   R(10,23)                1.0971         calculate D2E/DX2 analytically  !
 ! R25   R(11,12)                1.4593         calculate D2E/DX2 analytically  !
 ! R26   R(11,36)                1.6976         calculate D2E/DX2 analytically  !
 ! R27   R(12,24)                1.1046         calculate D2E/DX2 analytically  !
 ! R28   R(12,25)                1.0961         calculate D2E/DX2 analytically  !
 ! R29   R(12,26)                1.0966         calculate D2E/DX2 analytically  !
 ! R30   R(27,30)                0.9633         calculate D2E/DX2 analytically  !
 ! R31   R(27,33)                1.0489         calculate D2E/DX2 analytically  !
 ! R32   R(27,34)                1.0677         calculate D2E/DX2 analytically  !
 ! R33   R(28,31)                0.9594         calculate D2E/DX2 analytically  !
 ! R34   R(28,35)                1.5825         calculate D2E/DX2 analytically  !
 ! R35   R(28,36)                1.0065         calculate D2E/DX2 analytically  !
 ! R36   R(29,32)                0.995          calculate D2E/DX2 analytically  !
 ! R37   R(29,34)                1.3316         calculate D2E/DX2 analytically  !
 ! R38   R(29,35)                0.9993         calculate D2E/DX2 analytically  !
 ! R39   R(32,37)                1.6145         calculate D2E/DX2 analytically  !
 ! R40   R(37,38)                0.976          calculate D2E/DX2 analytically  !
 ! R41   R(37,39)                0.9598         calculate D2E/DX2 analytically  !
 ! R42   R(38,40)                1.8122         calculate D2E/DX2 analytically  !
 ! R43   R(40,41)                0.9612         calculate D2E/DX2 analytically  !
 ! R44   R(40,42)                0.9643         calculate D2E/DX2 analytically  !
 ! A1    A(2,1,6)              119.0569         calculate D2E/DX2 analytically  !
 ! A2    A(2,1,33)             125.2422         calculate D2E/DX2 analytically  !
 ! A3    A(6,1,33)             114.1103         calculate D2E/DX2 analytically  !
 ! A4    A(1,2,3)              121.9971         calculate D2E/DX2 analytically  !
 ! A5    A(1,2,13)             116.6385         calculate D2E/DX2 analytically  !
 ! A6    A(3,2,13)             121.3643         calculate D2E/DX2 analytically  !
 ! A7    A(2,3,4)              118.6176         calculate D2E/DX2 analytically  !
 ! A8    A(2,3,14)             120.13           calculate D2E/DX2 analytically  !
 ! A9    A(4,3,14)             121.2497         calculate D2E/DX2 analytically  !
 ! A10   A(3,4,5)              119.938          calculate D2E/DX2 analytically  !
 ! A11   A(3,4,15)             120.1033         calculate D2E/DX2 analytically  !
 ! A12   A(5,4,15)             119.9587         calculate D2E/DX2 analytically  !
 ! A13   A(4,5,6)              117.0493         calculate D2E/DX2 analytically  !
 ! A14   A(4,5,7)              121.8548         calculate D2E/DX2 analytically  !
 ! A15   A(6,5,7)              121.0888         calculate D2E/DX2 analytically  !
 ! A16   A(1,6,5)              123.3285         calculate D2E/DX2 analytically  !
 ! A17   A(1,6,16)             116.0076         calculate D2E/DX2 analytically  !
 ! A18   A(5,6,16)             120.6599         calculate D2E/DX2 analytically  !
 ! A19   A(5,7,8)              115.7747         calculate D2E/DX2 analytically  !
 ! A20   A(5,7,11)             112.5645         calculate D2E/DX2 analytically  !
 ! A21   A(5,7,17)             107.5943         calculate D2E/DX2 analytically  !
 ! A22   A(8,7,11)             103.4218         calculate D2E/DX2 analytically  !
 ! A23   A(8,7,17)             108.7711         calculate D2E/DX2 analytically  !
 ! A24   A(11,7,17)            108.4761         calculate D2E/DX2 analytically  !
 ! A25   A(7,8,9)              104.5715         calculate D2E/DX2 analytically  !
 ! A26   A(7,8,18)             110.601          calculate D2E/DX2 analytically  !
 ! A27   A(7,8,19)             110.5991         calculate D2E/DX2 analytically  !
 ! A28   A(9,8,18)             112.9968         calculate D2E/DX2 analytically  !
 ! A29   A(9,8,19)             110.9346         calculate D2E/DX2 analytically  !
 ! A30   A(18,8,19)            107.1853         calculate D2E/DX2 analytically  !
 ! A31   A(8,9,10)             104.427          calculate D2E/DX2 analytically  !
 ! A32   A(8,9,20)             112.4607         calculate D2E/DX2 analytically  !
 ! A33   A(8,9,21)             110.5101         calculate D2E/DX2 analytically  !
 ! A34   A(10,9,20)            111.2968         calculate D2E/DX2 analytically  !
 ! A35   A(10,9,21)            110.7744         calculate D2E/DX2 analytically  !
 ! A36   A(20,9,21)            107.4173         calculate D2E/DX2 analytically  !
 ! A37   A(9,10,11)            104.0804         calculate D2E/DX2 analytically  !
 ! A38   A(9,10,22)            110.9606         calculate D2E/DX2 analytically  !
 ! A39   A(9,10,23)            113.8818         calculate D2E/DX2 analytically  !
 ! A40   A(11,10,22)           109.9677         calculate D2E/DX2 analytically  !
 ! A41   A(11,10,23)           110.2178         calculate D2E/DX2 analytically  !
 ! A42   A(22,10,23)           107.7031         calculate D2E/DX2 analytically  !
 ! A43   A(7,11,10)            103.6797         calculate D2E/DX2 analytically  !
 ! A44   A(7,11,12)            113.5577         calculate D2E/DX2 analytically  !
 ! A45   A(7,11,36)            115.1323         calculate D2E/DX2 analytically  !
 ! A46   A(10,11,12)           113.1107         calculate D2E/DX2 analytically  !
 ! A47   A(10,11,36)           104.3971         calculate D2E/DX2 analytically  !
 ! A48   A(12,11,36)           106.7341         calculate D2E/DX2 analytically  !
 ! A49   A(11,12,24)           111.6349         calculate D2E/DX2 analytically  !
 ! A50   A(11,12,25)           109.4249         calculate D2E/DX2 analytically  !
 ! A51   A(11,12,26)           109.9861         calculate D2E/DX2 analytically  !
 ! A52   A(24,12,25)           108.6044         calculate D2E/DX2 analytically  !
 ! A53   A(24,12,26)           108.9015         calculate D2E/DX2 analytically  !
 ! A54   A(25,12,26)           108.214          calculate D2E/DX2 analytically  !
 ! A55   A(30,27,33)           110.8968         calculate D2E/DX2 analytically  !
 ! A56   A(30,27,34)           116.2457         calculate D2E/DX2 analytically  !
 ! A57   A(33,27,34)           107.5209         calculate D2E/DX2 analytically  !
 ! A58   A(31,28,35)           119.7111         calculate D2E/DX2 analytically  !
 ! A59   A(31,28,36)           108.0467         calculate D2E/DX2 analytically  !
 ! A60   A(35,28,36)           127.5295         calculate D2E/DX2 analytically  !
 ! A61   A(32,29,34)           108.282          calculate D2E/DX2 analytically  !
 ! A62   A(32,29,35)           109.6084         calculate D2E/DX2 analytically  !
 ! A63   A(34,29,35)           117.4413         calculate D2E/DX2 analytically  !
 ! A64   A(32,37,38)           107.9494         calculate D2E/DX2 analytically  !
 ! A65   A(32,37,39)           125.6559         calculate D2E/DX2 analytically  !
 ! A66   A(38,37,39)           107.3711         calculate D2E/DX2 analytically  !
 ! A67   A(37,38,40)           158.1774         calculate D2E/DX2 analytically  !
 ! A68   A(38,40,41)           123.0063         calculate D2E/DX2 analytically  !
 ! A69   A(38,40,42)           107.2707         calculate D2E/DX2 analytically  !
 ! A70   A(41,40,42)           105.9838         calculate D2E/DX2 analytically  !
 ! A71   L(29,32,37,2,-1)      170.5572         calculate D2E/DX2 analytically  !
 ! A72   L(1,33,27,28,-1)      169.0027         calculate D2E/DX2 analytically  !
 ! A73   L(27,34,29,4,-1)      176.5754         calculate D2E/DX2 analytically  !
 ! A74   L(28,35,29,1,-1)      178.0214         calculate D2E/DX2 analytically  !
 ! A75   L(11,36,28,1,-1)      180.0596         calculate D2E/DX2 analytically  !
 ! A76   L(29,32,37,2,-2)      172.7282         calculate D2E/DX2 analytically  !
 ! A77   L(1,33,27,28,-2)      170.483          calculate D2E/DX2 analytically  !
 ! A78   L(27,34,29,4,-2)      178.865          calculate D2E/DX2 analytically  !
 ! A79   L(28,35,29,1,-2)      177.0503         calculate D2E/DX2 analytically  !
 ! A80   L(11,36,28,1,-2)      179.181          calculate D2E/DX2 analytically  !
 ! D1    D(6,1,2,3)             -0.0414         calculate D2E/DX2 analytically  !
 ! D2    D(6,1,2,13)           179.9256         calculate D2E/DX2 analytically  !
 ! D3    D(33,1,2,3)           164.6966         calculate D2E/DX2 analytically  !
 ! D4    D(33,1,2,13)          -15.3364         calculate D2E/DX2 analytically  !
 ! D5    D(2,1,6,5)              0.9481         calculate D2E/DX2 analytically  !
 ! D6    D(2,1,6,16)          -179.7799         calculate D2E/DX2 analytically  !
 ! D7    D(33,1,6,5)          -165.4287         calculate D2E/DX2 analytically  !
 ! D8    D(33,1,6,16)           13.8433         calculate D2E/DX2 analytically  !
 ! D9    D(2,1,27,30)          107.3646         calculate D2E/DX2 analytically  !
 ! D10   D(2,1,27,34)         -125.767          calculate D2E/DX2 analytically  !
 ! D11   D(6,1,27,30)          -93.3565         calculate D2E/DX2 analytically  !
 ! D12   D(6,1,27,34)           33.5119         calculate D2E/DX2 analytically  !
 ! D13   D(1,2,3,4)             -0.8992         calculate D2E/DX2 analytically  !
 ! D14   D(1,2,3,14)           179.687          calculate D2E/DX2 analytically  !
 ! D15   D(13,2,3,4)           179.1354         calculate D2E/DX2 analytically  !
 ! D16   D(13,2,3,14)           -0.2784         calculate D2E/DX2 analytically  !
 ! D17   D(2,3,4,5)              0.9638         calculate D2E/DX2 analytically  !
 ! D18   D(2,3,4,15)          -179.0354         calculate D2E/DX2 analytically  !
 ! D19   D(14,3,4,5)          -179.6292         calculate D2E/DX2 analytically  !
 ! D20   D(14,3,4,15)            0.3715         calculate D2E/DX2 analytically  !
 ! D21   D(3,4,5,6)             -0.1365         calculate D2E/DX2 analytically  !
 ! D22   D(3,4,5,7)           -179.1758         calculate D2E/DX2 analytically  !
 ! D23   D(15,4,5,6)           179.8628         calculate D2E/DX2 analytically  !
 ! D24   D(15,4,5,7)             0.8234         calculate D2E/DX2 analytically  !
 ! D25   D(4,5,6,1)             -0.8496         calculate D2E/DX2 analytically  !
 ! D26   D(4,5,6,16)           179.911          calculate D2E/DX2 analytically  !
 ! D27   D(7,5,6,1)            178.1976         calculate D2E/DX2 analytically  !
 ! D28   D(7,5,6,16)            -1.0418         calculate D2E/DX2 analytically  !
 ! D29   D(4,5,7,8)           -123.5982         calculate D2E/DX2 analytically  !
 ! D30   D(4,5,7,11)           117.7307         calculate D2E/DX2 analytically  !
 ! D31   D(4,5,7,17)            -1.7277         calculate D2E/DX2 analytically  !
 ! D32   D(6,5,7,8)             57.4009         calculate D2E/DX2 analytically  !
 ! D33   D(6,5,7,11)           -61.2702         calculate D2E/DX2 analytically  !
 ! D34   D(6,5,7,17)           179.2713         calculate D2E/DX2 analytically  !
 ! D35   D(5,7,8,9)           -149.9425         calculate D2E/DX2 analytically  !
 ! D36   D(5,7,8,18)            88.1227         calculate D2E/DX2 analytically  !
 ! D37   D(5,7,8,19)           -30.4641         calculate D2E/DX2 analytically  !
 ! D38   D(11,7,8,9)           -26.3478         calculate D2E/DX2 analytically  !
 ! D39   D(11,7,8,18)         -148.2826         calculate D2E/DX2 analytically  !
 ! D40   D(11,7,8,19)           93.1306         calculate D2E/DX2 analytically  !
 ! D41   D(17,7,8,9)            88.8164         calculate D2E/DX2 analytically  !
 ! D42   D(17,7,8,18)          -33.1184         calculate D2E/DX2 analytically  !
 ! D43   D(17,7,8,19)         -151.7052         calculate D2E/DX2 analytically  !
 ! D44   D(5,7,11,10)          168.9845         calculate D2E/DX2 analytically  !
 ! D45   D(5,7,11,12)          -67.8663         calculate D2E/DX2 analytically  !
 ! D46   D(5,7,11,36)           55.6035         calculate D2E/DX2 analytically  !
 ! D47   D(8,7,11,10)           43.304          calculate D2E/DX2 analytically  !
 ! D48   D(8,7,11,12)          166.4532         calculate D2E/DX2 analytically  !
 ! D49   D(8,7,11,36)          -70.0769         calculate D2E/DX2 analytically  !
 ! D50   D(17,7,11,10)         -72.0708         calculate D2E/DX2 analytically  !
 ! D51   D(17,7,11,12)          51.0784         calculate D2E/DX2 analytically  !
 ! D52   D(17,7,11,36)         174.5482         calculate D2E/DX2 analytically  !
 ! D53   D(7,8,9,10)             0.6154         calculate D2E/DX2 analytically  !
 ! D54   D(7,8,9,20)          -120.1925         calculate D2E/DX2 analytically  !
 ! D55   D(7,8,9,21)           119.7762         calculate D2E/DX2 analytically  !
 ! D56   D(18,8,9,10)          120.9643         calculate D2E/DX2 analytically  !
 ! D57   D(18,8,9,20)            0.1564         calculate D2E/DX2 analytically  !
 ! D58   D(18,8,9,21)         -119.8749         calculate D2E/DX2 analytically  !
 ! D59   D(19,8,9,10)         -118.6369         calculate D2E/DX2 analytically  !
 ! D60   D(19,8,9,20)          120.5551         calculate D2E/DX2 analytically  !
 ! D61   D(19,8,9,21)            0.5238         calculate D2E/DX2 analytically  !
 ! D62   D(8,9,10,11)           25.4883         calculate D2E/DX2 analytically  !
 ! D63   D(8,9,10,22)          -92.7473         calculate D2E/DX2 analytically  !
 ! D64   D(8,9,10,23)          145.5352         calculate D2E/DX2 analytically  !
 ! D65   D(20,9,10,11)         147.0682         calculate D2E/DX2 analytically  !
 ! D66   D(20,9,10,22)          28.8326         calculate D2E/DX2 analytically  !
 ! D67   D(20,9,10,23)         -92.8849         calculate D2E/DX2 analytically  !
 ! D68   D(21,9,10,11)         -93.4934         calculate D2E/DX2 analytically  !
 ! D69   D(21,9,10,22)         148.271          calculate D2E/DX2 analytically  !
 ! D70   D(21,9,10,23)          26.5535         calculate D2E/DX2 analytically  !
 ! D71   D(9,10,11,7)          -43.1495         calculate D2E/DX2 analytically  !
 ! D72   D(9,10,11,12)        -166.5922         calculate D2E/DX2 analytically  !
 ! D73   D(9,10,11,36)          77.7653         calculate D2E/DX2 analytically  !
 ! D74   D(22,10,11,7)          75.7664         calculate D2E/DX2 analytically  !
 ! D75   D(22,10,11,12)        -47.6764         calculate D2E/DX2 analytically  !
 ! D76   D(22,10,11,36)       -163.3188         calculate D2E/DX2 analytically  !
 ! D77   D(23,10,11,7)        -165.6406         calculate D2E/DX2 analytically  !
 ! D78   D(23,10,11,12)         70.9166         calculate D2E/DX2 analytically  !
 ! D79   D(23,10,11,36)        -44.7258         calculate D2E/DX2 analytically  !
 ! D80   D(7,11,12,24)         -57.756          calculate D2E/DX2 analytically  !
 ! D81   D(7,11,12,25)        -178.0074         calculate D2E/DX2 analytically  !
 ! D82   D(7,11,12,26)          63.2466         calculate D2E/DX2 analytically  !
 ! D83   D(10,11,12,24)         60.0563         calculate D2E/DX2 analytically  !
 ! D84   D(10,11,12,25)        -60.1951         calculate D2E/DX2 analytically  !
 ! D85   D(10,11,12,26)       -178.941          calculate D2E/DX2 analytically  !
 ! D86   D(36,11,12,24)        174.2989         calculate D2E/DX2 analytically  !
 ! D87   D(36,11,12,25)         54.0475         calculate D2E/DX2 analytically  !
 ! D88   D(36,11,12,26)        -64.6985         calculate D2E/DX2 analytically  !
 ! D89   D(7,11,28,31)         130.9595         calculate D2E/DX2 analytically  !
 ! D90   D(7,11,28,35)         -73.413          calculate D2E/DX2 analytically  !
 ! D91   D(10,11,28,31)         18.183          calculate D2E/DX2 analytically  !
 ! D92   D(10,11,28,35)        173.8104         calculate D2E/DX2 analytically  !
 ! D93   D(12,11,28,31)       -101.8926         calculate D2E/DX2 analytically  !
 ! D94   D(12,11,28,35)         53.7349         calculate D2E/DX2 analytically  !
 ! D95   D(30,27,29,32)       -145.0078         calculate D2E/DX2 analytically  !
 ! D96   D(30,27,29,35)         91.4288         calculate D2E/DX2 analytically  !
 ! D97   D(33,27,29,32)         90.3056         calculate D2E/DX2 analytically  !
 ! D98   D(33,27,29,35)        -33.2578         calculate D2E/DX2 analytically  !
 ! D99   D(31,28,29,32)         97.3351         calculate D2E/DX2 analytically  !
 ! D100  D(31,28,29,34)       -138.4052         calculate D2E/DX2 analytically  !
 ! D101  D(36,28,29,32)        -57.0956         calculate D2E/DX2 analytically  !
 ! D102  D(36,28,29,34)         67.1641         calculate D2E/DX2 analytically  !
 ! D103  D(34,29,37,38)        -10.2431         calculate D2E/DX2 analytically  !
 ! D104  D(34,29,37,39)        114.9721         calculate D2E/DX2 analytically  !
 ! D105  D(35,29,37,38)        116.3926         calculate D2E/DX2 analytically  !
 ! D106  D(35,29,37,39)       -118.3922         calculate D2E/DX2 analytically  !
 ! D107  D(32,37,38,40)         12.5522         calculate D2E/DX2 analytically  !
 ! D108  D(39,37,38,40)       -125.4661         calculate D2E/DX2 analytically  !
 ! D109  D(37,38,40,41)        147.5932         calculate D2E/DX2 analytically  !
 ! D110  D(37,38,40,42)         24.5129         calculate D2E/DX2 analytically  !
 ! D111  D(38,40,41,42)       -123.6638         calculate D2E/DX2 analytically  !
 --------------------------------------------------------------------------------
 Trust Radius=5.00D-02 FncErr=1.00D-07 GrdErr=1.00D-06 EigMax=2.50D+02 EigMin=1.00D-04
 Number of steps in this run=    245 maximum allowed number of steps=    252.
 Search for a saddle point of order  1.
 GradGradGradGradGradGradGradGradGradGradGradGradGradGradGradGradGradGrad

                          Input orientation:                          
 ---------------------------------------------------------------------
 Center     Atomic      Atomic             Coordinates (Angstroms)
 Number     Number       Type             X           Y           Z
 ---------------------------------------------------------------------
      1          7           0       -1.217859    1.443552   -0.902874
      2          6           0       -1.488030    2.563838   -0.220359
      3          6           0       -0.550993    3.163825    0.608338
      4          6           0        0.700366    2.566197    0.743287
      5          6           0        0.994728    1.400715    0.036776
      6          6           0       -0.008393    0.886008   -0.783360
      7          6           0        2.329677    0.707119    0.164581
      8          6           0        3.103589    0.496956   -1.149913
      9          6           0        3.921118   -0.796234   -0.917879
     10          6           0        3.543740   -1.237252    0.501009
     11          7           0        2.208550   -0.657589    0.712692
     12          6           0        1.784833   -0.689932    2.108753
     13          1           0       -2.484322    2.984912   -0.347659
     14          1           0       -0.801338    4.076624    1.144825
     15          1           0        1.449792    3.008574    1.400588
     16          1           0        0.158962   -0.021940   -1.363450
     17          1           0        2.954227    1.307733    0.853540
     18          1           0        3.731628    1.366266   -1.370413
     19          1           0        2.410515    0.376605   -1.990436
     20          1           0        4.999236   -0.631440   -1.009400
     21          1           0        3.643144   -1.562760   -1.650006
     22          1           0        4.253805   -0.830311    1.243421
     23          1           0        3.509855   -2.325829    0.633553
     24          1           0        2.476664   -0.123798    2.757535
     25          1           0        1.751634   -1.729146    2.455639
     26          1           0        0.778865   -0.264113    2.205093
     27          8           0       -2.924140   -0.254081   -1.826659
     28          8           0        0.548917   -2.294948   -0.657147
     29          8           0       -2.027730   -2.212876   -0.772810
     30          1           0       -3.074153   -0.281119   -2.777859
     31          1           0        1.012362   -3.120237   -0.813914
     32          1           0       -2.436798   -2.282052    0.131578
     33          1           0       -2.273283    0.528269   -1.572638
     34          1           0       -2.541817   -1.147043   -1.383374
     35          1           0       -1.032775   -2.264075   -0.695634
     36          1           0        1.161604   -1.686691   -0.139854
     37          8           0       -3.243054   -2.103021    1.518872
     38          1           0       -3.676491   -1.228668    1.504181
     39          1           0       -3.872122   -2.728576    1.885113
     40          8           0       -4.291758    0.332755    0.820465
     41          1           0       -5.083266    0.770848    1.145371
     42          1           0       -4.432453    0.196158   -0.123685
 ---------------------------------------------------------------------
                    Distance matrix (angstroms):
                    1          2          3          4          5
     1  N    0.000000
     2  C    1.339351   0.000000
     3  C    2.384913   1.387358   0.000000
     4  C    2.765821   2.391170   1.393295   0.000000
     5  C    2.404229   2.753736   2.413399   1.394330   0.000000
     6  C    1.337141   2.306818   2.723910   2.378240   1.394202
     7  C    3.777142   4.262684   3.811900   2.538843   1.509801
     8  C    4.430800   5.120453   4.853824   3.693433   2.583081
     9  C    5.605885   6.405896   6.165321   4.943547   3.781760
    10  C    5.641846   6.347233   6.012307   4.754966   3.697546
    11  N    4.331873   4.991280   4.714782   3.559263   2.483313
    12  C    4.757921   5.169469   4.749607   3.693635   3.047648
    13  H    2.070745   1.089085   2.164186   3.392304   3.842038
    14  H    3.361492   2.150301   1.087977   2.167426   3.407949
    15  H    3.856370   3.384680   2.157523   1.090588   2.156914
    16  H    2.062870   3.271924   3.813277   3.380815   2.164044
    17  H    4.528768   4.739695   3.973886   2.583752   2.124944
    18  H    4.972121   5.477375   5.048516   3.885371   3.077660
    19  H    3.935259   4.807891   4.826256   3.897713   2.676349
    20  H    6.555090   7.274408   6.915646   5.637116   4.610881
    21  H    5.764154   6.738075   6.710552   5.606789   4.317583
    22  H    6.302074   6.828731   6.280329   4.940985   4.129776
    23  H    6.238599   7.043924   6.828428   5.642445   4.535321
    24  H    5.431821   5.640039   4.959256   3.801119   3.452941
    25  H    5.492132   6.007171   5.714523   4.742076   4.027386
    26  H    4.069703   4.361071   4.008604   3.186486   2.742234
    27  O    2.578126   3.547292   4.821112   5.262664   4.644165
    28  O    4.142253   5.286562   5.710469   5.061115   3.786582
    29  O    3.747302   4.838747   5.744322   5.707942   4.780034
    30  H    3.152124   4.141301   5.449799   5.895140   5.225565
    31  H    5.080351   6.238027   6.629956   5.904045   4.600325
    32  H    4.054137   4.950421   5.782831   5.807022   5.034593
    33  H    1.549273   2.566870   3.830025   4.284769   3.745834
    34  H    2.948716   4.029108   5.149163   5.368667   4.584217
    35  H    3.718024   4.872565   5.603084   5.329709   4.251809
    36  H    4.005305   5.009395   5.198104   4.368036   3.096954
    37  O    4.748099   5.280588   5.984641   6.160657   5.694872
    38  H    4.356552   4.706007   5.464912   5.842674   5.557627
    39  H    5.676675   6.174670   6.883345   7.088444   6.644819
    40  O    3.694946   3.731211   4.696092   5.469508   5.449921
    41  H    4.425970   4.243319   5.153275   6.069213   6.210292
    42  H    3.535073   3.779535   4.940510   5.719664   5.561564
                    6          7          8          9         10
     6  C    0.000000
     7  C    2.529262   0.000000
     8  C    3.157555   1.539806   0.000000
     9  C    4.276575   2.442227   1.547428   0.000000
    10  C    4.333069   2.316832   2.434493   1.533021   0.000000
    11  N    3.087993   1.475644   2.367143   2.368728   1.470901
    12  C    3.750142   2.455282   3.710354   3.706146   2.445026
    13  H    3.274974   5.350263   6.169140   7.460019   7.408403
    14  H    3.811389   4.702946   5.773067   7.092326   6.894308
    15  H    3.376569   2.756557   3.943136   5.095028   4.818807
    16  H    1.090359   2.752891   2.997612   3.866766   4.050915
    17  H    3.410925   1.107007   2.166447   2.915387   2.636049
    18  H    3.816155   2.180859   1.094876   2.217453   3.211826
    19  H    2.750934   2.181713   1.096045   2.192681   3.177425
    20  H    5.237374   3.208819   2.210543   1.094473   2.183303
    21  H    4.481212   3.189086   2.187154   1.095829   2.177775
    22  H    5.021944   2.688839   2.968616   2.187021   1.104975
    23  H    4.970071   3.288089   3.363617   2.217147   1.097140
    24  H    4.442201   2.726800   4.005811   4.005906   2.733192
    25  H    4.519717   3.393887   4.447844   4.117962   2.697069
    26  H    3.297485   2.740803   4.152064   4.462047   3.390492
    27  O    3.299978   5.700135   6.111919   6.926570   6.943928
    28  O    3.231873   3.585910   3.816267   3.699441   3.380682
    29  O    3.698772   5.328421   5.815138   6.116920   5.797908
    30  H    3.839153   6.231849   6.435845   7.256630   7.447259
    31  H    4.134353   4.164304   4.191684   3.724602   3.417972
    32  H    4.095225   5.626324   6.329375   6.613026   6.082345
    33  H    2.425008   4.923125   5.393554   6.368173   6.422993
    34  H    3.303264   5.437420   5.884543   6.489166   6.371267
    35  H    3.313620   4.568812   4.993913   5.171557   4.840538
    36  H    2.898581   2.680933   3.091899   3.002192   2.507443
    37  O    4.969668   6.386417   7.359495   7.679245   6.917093
    38  H    4.812447   6.451035   7.482745   7.986053   7.289593
    39  H    5.925738   7.295652   8.262928   8.504428   7.689915
    40  O    4.607120   6.664363   7.655097   8.470407   7.997625
    41  H    5.430249   7.477816   8.506935   9.369721   8.881042
    42  H    4.525856   6.787531   7.611541   8.449718   8.128011
                   11         12         13         14         15
    11  N    0.000000
    12  C    1.459304   0.000000
    13  H    6.034501   6.145252   0.000000
    14  H    5.626628   5.507948   2.500356   0.000000
    15  H    3.806529   3.780568   4.305134   2.504742   0.000000
    16  H    2.985838   3.891769   4.130368   4.900188   4.300019
    17  H    2.106742   2.633193   5.816668   4.675027   2.335690
    18  H    3.279494   4.485817   6.504158   5.849807   3.947455
    19  H    2.901249   4.281627   5.784584   5.816872   4.398783
    20  H    3.279362   4.478692   8.337838   7.775166   5.626393
    21  H    2.908563   4.282922   7.741012   7.705008   5.917264
    22  H    2.120041   2.619986   7.905050   7.045722   4.756493
    23  H    2.117235   2.797870   8.068265   7.735579   5.769580
    24  H    2.130305   1.104561   6.627042   5.566837   3.564762
    25  H    2.096395   1.096083   6.929946   6.476331   4.863150
    26  H    2.103826   1.096620   5.265083   4.739537   3.436255
    27  O    5.740699   6.152387   3.587751   5.664893   6.339663
    28  O    2.704031   3.428377   6.096986   6.757753   5.759618
    29  O    4.750969   5.015815   5.235096   6.688735   6.639304
    30  H    6.342919   6.903322   4.113482   6.288327   6.981947
    31  H    3.134649   3.878798   7.051031   7.676000   6.531285
    32  H    4.955384   4.926077   5.288935   6.643355   6.686306
    33  H    5.168735   5.612928   2.753217   4.705534   5.371524
    34  H    5.215270   5.578871   4.260172   6.058692   6.399417
    35  H    3.882057   4.275679   5.457100   6.606460   6.193393
    36  H    1.697640   2.537356   5.929573   6.222487   4.949902
    37  O    5.697296   5.255895   5.472355   6.655066   6.940115
    38  H    5.965425   5.521033   4.754454   6.044978   6.651596
    39  H    6.529788   6.017244   6.289293   7.502565   7.840435
    40  O    6.576200   6.295279   3.415447   5.128820   6.360971
    41  H    7.442998   7.087508   3.726356   5.409534   6.910384
    42  H    6.747691   6.665102   3.409183   5.463710   6.695812
                   16         17         18         19         20
    16  H    0.000000
    17  H    3.807438   0.000000
    18  H    3.832898   2.356639   0.000000
    19  H    2.370958   3.041516   1.763292   0.000000
    20  H    4.891328   3.378313   2.393322   2.946195   0.000000
    21  H    3.820440   3.870669   2.943670   2.323016   1.765423
    22  H    4.921075   2.532221   3.453947   3.913080   2.381264
    23  H    4.530387   3.682376   4.206736   3.923903   2.790789
    24  H    4.729126   2.429515   4.564557   4.774726   4.561893
    25  H    4.476226   3.638074   5.304774   4.963456   4.874256
    26  H    3.630073   3.004928   4.915403   4.547006   5.317840
    27  O    3.126335   6.646648   6.865343   5.374303   7.974346
    28  O    2.411948   4.587701   4.903355   3.518580   4.764103
    29  O    3.151298   6.313446   6.807172   5.280724   7.206606
    30  H    3.538468   7.214768   7.142369   5.579805   8.272230
    31  H    3.260326   5.114505   5.275681   3.945496   4.703987
    32  H    3.752490   6.516973   7.322273   5.921811   7.702010
    33  H    2.502460   5.815562   6.066473   4.704840   7.385912
    34  H    2.925827   6.421543   6.758180   5.216859   7.567905
    35  H    2.625526   5.572606   6.027789   4.528349   6.256924
    36  H    2.296492   3.628623   4.176104   3.040004   4.073952
    37  O    4.920609   7.105083   8.308436   7.101171   8.746031
    38  H    4.938644   7.129031   8.359258   7.200062   9.052238
    39  H    5.841976   7.997185   9.229474   8.008343   9.564370
    40  O    4.970332   7.311359   8.381099   7.267981   9.518437
    41  H    5.865462   8.060689   9.186188   8.132986  10.405109
    42  H    4.760848   7.533499   8.341205   7.095318   9.509267
                   21         22         23         24         25
    21  H    0.000000
    22  H    3.046524   0.000000
    23  H    2.411365   1.778194   0.000000
    24  H    4.780973   2.439248   3.229199   0.000000
    25  H    4.523474   2.922026   2.601417   1.787163   0.000000
    26  H    4.975175   3.649740   3.765464   1.790922   1.776337
    27  O    6.698736   7.828175   7.193127   7.085231   6.509743
    28  O    3.331082   4.414014   3.230172   4.482204   3.384686
    29  O    5.775027   6.740501   5.714496   6.092384   4.994043
    30  H    6.930854   8.376830   7.692056   7.840721   7.264606
    31  H    3.169511   4.470273   2.993947   4.886520   3.629275
    32  H    6.376293   6.935987   5.967963   5.974598   4.821818
    33  H    6.275548   7.237320   6.815999   6.460463   6.125593
    34  H    6.204648   7.292520   6.486930   6.586297   5.788833
    35  H    4.823576   5.810640   4.733502   5.368550   4.239057
    36  H    2.907569   3.494073   2.553613   3.544980   2.662052
    37  O    7.599565   7.609110   6.814339   6.177927   5.095510
    38  H    7.977316   7.944575   7.321566   6.375967   5.533560
    39  H    8.386621   8.369341   7.498146   6.917592   5.740295
    40  O    8.524017   8.634713   8.244281   7.054943   6.591496
    41  H    9.455691   9.473870   9.148393   7.781517   7.394770
    42  H    8.404684   8.852892   8.367442   7.492643   6.971559
                   26         27         28         29         30
    26  H    0.000000
    27  O    5.474246   0.000000
    28  O    3.517042   4.194642   0.000000
    29  O    4.532390   2.398130   2.580547   0.000000
    30  H    6.298877   0.963336   4.656132   2.974375   0.000000
    31  H    4.162495   4.973585   0.959406   3.172878   5.349512
    32  H    4.325740   2.860920   3.088162   0.995007   3.588144
    33  H    4.920846   1.048910   4.095545   2.865990   1.658029
    34  H    4.968258   1.067733   3.376052   1.331568   1.725629
    35  H    3.961831   2.982709   1.582461   0.999256   3.526329
    36  H    2.769295   4.646610   1.006456   3.293836   5.184240
    37  O    4.475300   3.835735   4.376179   2.596322   4.670091
    38  H    4.612141   3.551105   4.864398   2.978551   4.426796
    39  H    5.273295   4.560597   5.118272   3.276016   5.326360
    40  O    5.290053   3.036778   5.702657   3.760929   3.848031
    41  H    6.046382   3.813826   6.661056   4.681701   4.531545
    42  H    5.726508   2.319018   5.595019   3.465184   3.019505
                   31         32         33         34         35
    31  H    0.000000
    32  H    3.673311   0.000000
    33  H    4.968171   3.290744   0.000000
    34  H    4.104871   1.895878   1.707220   0.000000
    35  H    2.220268   1.629688   3.178865   1.999489   0.000000
    36  H    1.591127   3.657407   4.330978   3.943715   2.336143
    37  O    4.958345   1.614523   4.173916   3.135069   3.132939
    38  H    5.562099   2.128496   3.810858   3.103566   3.591725
    39  H    5.594312   2.309637   5.011923   3.867036   3.864959
    40  O    6.536669   3.279125   3.136783   3.179466   4.434304
    41  H    7.492398   4.165545   3.916940   4.065934   5.385771
    42  H    6.412558   3.192072   2.621408   2.639225   4.235290
                   36         37         38         39         40
    36  H    0.000000
    37  O    4.725009   0.000000
    38  H    5.130283   0.976000   0.000000
    39  H    5.524890   0.959780   1.559841   0.000000
    40  O    5.894025   2.742363   1.812198   3.268228   0.000000
    41  H    6.832986   3.432930   2.470997   3.776249   0.961236
    42  H    5.902445   3.065761   2.291627   3.592118   0.964299
                   41         42
    41  H    0.000000
    42  H    1.537638   0.000000
 Stoichiometry    C10H25N2O5(1+)
 Framework group  C1[X(C10H25N2O5)]
 Deg. of freedom   120
 Full point group                 C1      NOp   1
 Largest Abelian subgroup         C1      NOp   1
 Largest concise Abelian subgroup C1      NOp   1
                         Standard orientation:                         
 ---------------------------------------------------------------------
 Center     Atomic      Atomic             Coordinates (Angstroms)
 Number     Number       Type             X           Y           Z
 ---------------------------------------------------------------------
      1          7           0       -1.217859    1.443552   -0.902874
      2          6           0       -1.488030    2.563838   -0.220359
      3          6           0       -0.550993    3.163825    0.608338
      4          6           0        0.700366    2.566197    0.743287
      5          6           0        0.994728    1.400715    0.036776
      6          6           0       -0.008393    0.886008   -0.783360
      7          6           0        2.329677    0.707119    0.164581
      8          6           0        3.103589    0.496956   -1.149913
      9          6           0        3.921118   -0.796234   -0.917879
     10          6           0        3.543740   -1.237252    0.501009
     11          7           0        2.208550   -0.657589    0.712692
     12          6           0        1.784833   -0.689932    2.108753
     13          1           0       -2.484322    2.984912   -0.347659
     14          1           0       -0.801338    4.076624    1.144825
     15          1           0        1.449792    3.008574    1.400588
     16          1           0        0.158962   -0.021940   -1.363450
     17          1           0        2.954227    1.307733    0.853540
     18          1           0        3.731628    1.366266   -1.370413
     19          1           0        2.410515    0.376605   -1.990436
     20          1           0        4.999236   -0.631440   -1.009400
     21          1           0        3.643144   -1.562760   -1.650006
     22          1           0        4.253805   -0.830311    1.243421
     23          1           0        3.509855   -2.325829    0.633553
     24          1           0        2.476664   -0.123798    2.757535
     25          1           0        1.751634   -1.729146    2.455639
     26          1           0        0.778865   -0.264113    2.205093
     27          8           0       -2.924140   -0.254081   -1.826659
     28          8           0        0.548917   -2.294948   -0.657147
     29          8           0       -2.027730   -2.212876   -0.772810
     30          1           0       -3.074153   -0.281119   -2.777859
     31          1           0        1.012362   -3.120237   -0.813914
     32          1           0       -2.436798   -2.282052    0.131578
     33          1           0       -2.273283    0.528269   -1.572638
     34          1           0       -2.541817   -1.147043   -1.383374
     35          1           0       -1.032775   -2.264075   -0.695634
     36          1           0        1.161604   -1.686691   -0.139854
     37          8           0       -3.243054   -2.103021    1.518872
     38          1           0       -3.676491   -1.228668    1.504181
     39          1           0       -3.872122   -2.728576    1.885113
     40          8           0       -4.291758    0.332755    0.820465
     41          1           0       -5.083266    0.770848    1.145371
     42          1           0       -4.432453    0.196158   -0.123685
 ---------------------------------------------------------------------
 Rotational constants (GHZ):           0.5041310           0.2690989           0.2205608
 Standard basis: Aug-CC-pVDZ (5D, 7F)
 There are   650 symmetry adapted cartesian basis functions of A   symmetry.
 There are   616 symmetry adapted basis functions of A   symmetry.
   616 basis functions,  1006 primitive gaussians,   650 cartesian basis functions
    69 alpha electrons       69 beta electrons
       nuclear repulsion energy      1395.8245141695 Hartrees.
 NAtoms=   42 NActive=   42 NUniq=   42 SFac= 1.00D+00 NAtFMM=   60 NAOKFM=F Big=F
 Integral buffers will be    131072 words long.
 Raffenetti 2 integral format.
 Two-electron integral symmetry is turned on.
 Nuclear repulsion after empirical dispersion term =     1395.7912745997 Hartrees.
 One-electron integrals computed using PRISM.
 NBasis=   616 RedAO= T EigKep=  1.96D-06  NBF=   616
 NBsUse=   616 1.00D-06 EigRej= -1.00D+00 NBFU=   616
 ExpMin= 2.97D-02 ExpMax= 1.17D+04 ExpMxC= 4.01D+02 IAcc=3 IRadAn=         5 AccDes= 0.00D+00
 Harris functional with IExCor= 4639 and IRadAn=       5 diagonalized for initial guess.
 HarFok:  IExCor= 4639 AccDes= 0.00D+00 IRadAn=         5 IDoV= 1 UseB2=F ITyADJ=14
 ICtDFT=  3500011 ScaDFX=  1.000000  1.000000  1.000000  1.000000
 FoFCou: FMM=F IPFlag=           0 FMFlag=      100000 FMFlg1=           0
         NFxFlg=           0 DoJE=T BraDBF=F KetDBF=T FulRan=T
         wScrn=  0.000000 ICntrl=       500 IOpCl=  0 I1Cent=   200000004 NGrid=           0
         NMat0=    1 NMatS0=      1 NMatT0=    0 NMatD0=    1 NMtDS0=    0 NMtDT0=    0
 Petite list used in FoFCou.
 Requested convergence on RMS density matrix=1.00D-08 within 128 cycles.
 Requested convergence on MAX density matrix=1.00D-06.
 Requested convergence on             energy=1.00D-06.
 No special actions if energy rises.
 SCF Done:  E(RwB97XD) =  -881.449961986     A.U. after   16 cycles
            NFock= 16  Conv=0.17D-08     -V/T= 2.0061
 DoSCS=F DFT=T ScalE2(SS,OS)=  1.000000  1.000000
 Range of M.O.s used for correlation:     1   616
 NBasis=   616 NAE=    69 NBE=    69 NFC=     0 NFV=     0
 NROrb=    616 NOA=    69 NOB=    69 NVA=   547 NVB=   547

 **** Warning!!: The largest alpha MO coefficient is  0.98989972D+02

 Symmetrizing basis deriv contribution to polar:
 IMax=3 JMax=2 DiffMx= 0.00D+00
 G2DrvN: will do    43 centers at a time, making    1 passes.
 Calling FoFCou, ICntrl=  3107 FMM=F I1Cent=   0 AccDes= 0.00D+00.
 End of G2Drv F.D. properties file   721 does not exist.
 End of G2Drv F.D. properties file   722 does not exist.
 End of G2Drv F.D. properties file   788 does not exist.
          IDoAtm=111111111111111111111111111111111111111111
          Differentiating once with respect to electric field.
                with respect to dipole field.
          Differentiating once with respect to nuclear coordinates.
 CalDSu exits because no D1Ps are significant.
          There are   129 degrees of freedom in the 1st order CPHF.  IDoFFX=6 NUNeed=     3.
    126 vectors produced by pass  0 Test12= 3.77D-14 1.00D-09 XBig12= 7.67D+01 3.24D+00.
 AX will form   126 AO Fock derivatives at one time.
    126 vectors produced by pass  1 Test12= 3.77D-14 1.00D-09 XBig12= 9.80D+00 7.04D-01.
    126 vectors produced by pass  2 Test12= 3.77D-14 1.00D-09 XBig12= 2.58D-01 7.63D-02.
    126 vectors produced by pass  3 Test12= 3.77D-14 1.00D-09 XBig12= 2.32D-03 3.85D-03.
    126 vectors produced by pass  4 Test12= 3.77D-14 1.00D-09 XBig12= 2.03D-05 4.20D-04.
    126 vectors produced by pass  5 Test12= 3.77D-14 1.00D-09 XBig12= 1.31D-07 2.98D-05.
    122 vectors produced by pass  6 Test12= 3.77D-14 1.00D-09 XBig12= 7.71D-10 1.56D-06.
     46 vectors produced by pass  7 Test12= 3.77D-14 1.00D-09 XBig12= 3.89D-12 1.15D-07.
      3 vectors produced by pass  8 Test12= 3.77D-14 1.00D-09 XBig12= 2.13D-14 7.34D-09.
      3 vectors produced by pass  9 Test12= 3.77D-14 1.00D-09 XBig12= 5.07D-15 5.26D-09.
 InvSVY:  IOpt=1 It=  1 EMax= 2.31D-14
 Solved reduced A of dimension   930 with   129 vectors.
 Isotropic polarizability for W=    0.000000      172.02 Bohr**3.
 End of Minotr F.D. properties file   721 does not exist.
 End of Minotr F.D. properties file   722 does not exist.
 End of Minotr F.D. properties file   788 does not exist.

 **********************************************************************

            Population analysis using the SCF density.

 **********************************************************************

 Orbital symmetries:
       Occupied  (A) (A) (A) (A) (A) (A) (A) (A) (A) (A) (A) (A)
                 (A) (A) (A) (A) (A) (A) (A) (A) (A) (A) (A) (A)
                 (A) (A) (A) (A) (A) (A) (A) (A) (A) (A) (A) (A)
                 (A) (A) (A) (A) (A) (A) (A) (A) (A) (A) (A) (A)
                 (A) (A) (A) (A) (A) (A) (A) (A) (A) (A) (A) (A)
                 (A) (A) (A) (A) (A) (A) (A) (A) (A)
       Virtual   (A) (A) (A) (A) (A) (A) (A) (A) (A) (A) (A) (A)
                 (A) (A) (A) (A) (A) (A) (A) (A) (A) (A) (A) (A)
                 (A) (A) (A) (A) (A) (A) (A) (A) (A) (A) (A) (A)
                 (A) (A) (A) (A) (A) (A) (A) (A) (A) (A) (A) (A)
                 (A) (A) (A) (A) (A) (A) (A) (A) (A) (A) (A) (A)
                 (A) (A) (A) (A) (A) (A) (A) (A) (A) (A) (A) (A)
                 (A) (A) (A) (A) (A) (A) (A) (A) (A) (A) (A) (A)
                 (A) (A) (A) (A) (A) (A) (A) (A) (A) (A) (A) (A)
                 (A) (A) (A) (A) (A) (A) (A) (A) (A) (A) (A) (A)
                 (A) (A) (A) (A) (A) (A) (A) (A) (A) (A) (A) (A)
                 (A) (A) (A) (A) (A) (A) (A) (A) (A) (A) (A) (A)
                 (A) (A) (A) (A) (A) (A) (A) (A) (A) (A) (A) (A)
                 (A) (A) (A) (A) (A) (A) (A) (A) (A) (A) (A) (A)
                 (A) (A) (A) (A) (A) (A) (A) (A) (A) (A) (A) (A)
                 (A) (A) (A) (A) (A) (A) (A) (A) (A) (A) (A) (A)
                 (A) (A) (A) (A) (A) (A) (A) (A) (A) (A) (A) (A)
                 (A) (A) (A) (A) (A) (A) (A) (A) (A) (A) (A) (A)
                 (A) (A) (A) (A) (A) (A) (A) (A) (A) (A) (A) (A)
                 (A) (A) (A) (A) (A) (A) (A) (A) (A) (A) (A) (A)
                 (A) (A) (A) (A) (A) (A) (A) (A) (A) (A) (A) (A)
                 (A) (A) (A) (A) (A) (A) (A) (A) (A) (A) (A) (A)
                 (A) (A) (A) (A) (A) (A) (A) (A) (A) (A) (A) (A)
                 (A) (A) (A) (A) (A) (A) (A) (A) (A) (A) (A) (A)
                 (A) (A) (A) (A) (A) (A) (A) (A) (A) (A) (A) (A)
                 (A) (A) (A) (A) (A) (A) (A) (A) (A) (A) (A) (A)
                 (A) (A) (A) (A) (A) (A) (A) (A) (A) (A) (A) (A)
                 (A) (A) (A) (A) (A) (A) (A) (A) (A) (A) (A) (A)
                 (A) (A) (A) (A) (A) (A) (A) (A) (A) (A) (A) (A)
                 (A) (A) (A) (A) (A) (A) (A) (A) (A) (A) (A) (A)
                 (A) (A) (A) (A) (A) (A) (A) (A) (A) (A) (A) (A)
                 (A) (A) (A) (A) (A) (A) (A) (A) (A) (A) (A) (A)
                 (A) (A) (A) (A) (A) (A) (A) (A) (A) (A) (A) (A)
                 (A) (A) (A) (A) (A) (A) (A) (A) (A) (A) (A) (A)
                 (A) (A) (A) (A) (A) (A) (A) (A) (A) (A) (A) (A)
                 (A) (A) (A) (A) (A) (A) (A) (A) (A) (A) (A) (A)
                 (A) (A) (A) (A) (A) (A) (A) (A) (A) (A) (A) (A)
                 (A) (A) (A) (A) (A) (A) (A) (A) (A) (A) (A) (A)
                 (A) (A) (A) (A) (A) (A) (A) (A) (A) (A) (A) (A)
                 (A) (A) (A) (A) (A) (A) (A) (A) (A) (A) (A) (A)
                 (A) (A) (A) (A) (A) (A) (A) (A) (A) (A) (A) (A)
                 (A) (A) (A) (A) (A) (A) (A) (A) (A) (A) (A) (A)
                 (A) (A) (A) (A) (A) (A) (A) (A) (A) (A) (A) (A)
                 (A) (A) (A) (A) (A) (A) (A) (A) (A) (A) (A) (A)
                 (A) (A) (A) (A) (A) (A) (A) (A) (A) (A) (A) (A)
                 (A) (A) (A) (A) (A) (A) (A) (A) (A) (A) (A) (A)
                 (A) (A) (A) (A) (A) (A) (A)
 The electronic state is 1-A.
 Alpha  occ. eigenvalues --  -19.47080 -19.41231 -19.38550 -19.37885 -19.37841
 Alpha  occ. eigenvalues --  -14.60382 -14.57439 -10.46880 -10.46764 -10.45013
 Alpha  occ. eigenvalues --  -10.44583 -10.44219 -10.43592 -10.42815 -10.42381
 Alpha  occ. eigenvalues --  -10.40468 -10.39887  -1.33049  -1.25606  -1.23729
 Alpha  occ. eigenvalues --   -1.22511  -1.21016  -1.19380  -1.16512  -1.04668
 Alpha  occ. eigenvalues --   -1.01003  -0.99473  -0.93852  -0.88598  -0.86450
 Alpha  occ. eigenvalues --   -0.85492  -0.83124  -0.80588  -0.78996  -0.78765
 Alpha  occ. eigenvalues --   -0.76286  -0.75199  -0.74985  -0.73873  -0.72671
 Alpha  occ. eigenvalues --   -0.71438  -0.69828  -0.68515  -0.65880  -0.65564
 Alpha  occ. eigenvalues --   -0.65096  -0.63571  -0.63046  -0.62819  -0.61911
 Alpha  occ. eigenvalues --   -0.61740  -0.61254  -0.59772  -0.58444  -0.57904
 Alpha  occ. eigenvalues --   -0.56982  -0.56138  -0.55053  -0.54460  -0.54083
 Alpha  occ. eigenvalues --   -0.53166  -0.52880  -0.51887  -0.51812  -0.51602
 Alpha  occ. eigenvalues --   -0.50185  -0.49816  -0.46336  -0.43936
 Alpha virt. eigenvalues --   -0.09920  -0.08176  -0.07363  -0.05266  -0.04822
 Alpha virt. eigenvalues --   -0.04486  -0.03472  -0.03105  -0.02957  -0.02259
 Alpha virt. eigenvalues --   -0.01974  -0.01407  -0.00877  -0.00697  -0.00468
 Alpha virt. eigenvalues --   -0.00339   0.00166   0.00801   0.01028   0.01491
 Alpha virt. eigenvalues --    0.01779   0.01985   0.02404   0.02682   0.02886
 Alpha virt. eigenvalues --    0.03119   0.03507   0.04090   0.04521   0.04782
 Alpha virt. eigenvalues --    0.05021   0.05300   0.05609   0.05724   0.05865
 Alpha virt. eigenvalues --    0.06264   0.06700   0.06860   0.07003   0.07340
 Alpha virt. eigenvalues --    0.07511   0.07726   0.07977   0.08207   0.08429
 Alpha virt. eigenvalues --    0.08722   0.09170   0.09446   0.09661   0.09972
 Alpha virt. eigenvalues --    0.10591   0.10662   0.10787   0.11062   0.11469
 Alpha virt. eigenvalues --    0.11610   0.12180   0.12409   0.12616   0.12767
 Alpha virt. eigenvalues --    0.13067   0.13511   0.13701   0.13915   0.14555
 Alpha virt. eigenvalues --    0.14789   0.15108   0.15225   0.15748   0.15952
 Alpha virt. eigenvalues --    0.16077   0.16252   0.16699   0.16825   0.17117
 Alpha virt. eigenvalues --    0.17205   0.17517   0.17821   0.17865   0.18574
 Alpha virt. eigenvalues --    0.18612   0.18902   0.19168   0.19224   0.19325
 Alpha virt. eigenvalues --    0.19878   0.20039   0.20115   0.20914   0.21032
 Alpha virt. eigenvalues --    0.21141   0.21708   0.22024   0.22267   0.22636
 Alpha virt. eigenvalues --    0.22835   0.23147   0.23641   0.23935   0.24327
 Alpha virt. eigenvalues --    0.25240   0.25417   0.25575   0.25692   0.26297
 Alpha virt. eigenvalues --    0.26538   0.26763   0.27198   0.27428   0.27570
 Alpha virt. eigenvalues --    0.27902   0.28257   0.28441   0.28935   0.29568
 Alpha virt. eigenvalues --    0.29833   0.30038   0.30391   0.30698   0.30843
 Alpha virt. eigenvalues --    0.31381   0.31727   0.32378   0.32650   0.33099
 Alpha virt. eigenvalues --    0.33435   0.33807   0.34029   0.34205   0.34486
 Alpha virt. eigenvalues --    0.34537   0.34856   0.35777   0.35892   0.36402
 Alpha virt. eigenvalues --    0.36921   0.37345   0.37699   0.38121   0.38612
 Alpha virt. eigenvalues --    0.38961   0.39415   0.39455   0.39939   0.40257
 Alpha virt. eigenvalues --    0.40815   0.41273   0.41483   0.41778   0.42498
 Alpha virt. eigenvalues --    0.43147   0.43317   0.43787   0.44076   0.44440
 Alpha virt. eigenvalues --    0.44702   0.44824   0.45247   0.45517   0.45958
 Alpha virt. eigenvalues --    0.46229   0.46580   0.46723   0.47294   0.47928
 Alpha virt. eigenvalues --    0.48126   0.48565   0.48820   0.49222   0.49345
 Alpha virt. eigenvalues --    0.49494   0.49912   0.50588   0.50936   0.51359
 Alpha virt. eigenvalues --    0.51880   0.51984   0.52250   0.52937   0.53125
 Alpha virt. eigenvalues --    0.53311   0.53651   0.54027   0.54753   0.54883
 Alpha virt. eigenvalues --    0.55263   0.55687   0.56262   0.56482   0.57080
 Alpha virt. eigenvalues --    0.57557   0.57954   0.58071   0.58325   0.58752
 Alpha virt. eigenvalues --    0.59476   0.59739   0.60360   0.60534   0.60874
 Alpha virt. eigenvalues --    0.60964   0.61304   0.61665   0.62175   0.62493
 Alpha virt. eigenvalues --    0.63093   0.63740   0.63892   0.64171   0.64808
 Alpha virt. eigenvalues --    0.65065   0.65751   0.65863   0.66435   0.67007
 Alpha virt. eigenvalues --    0.67540   0.68038   0.68297   0.68643   0.69009
 Alpha virt. eigenvalues --    0.69411   0.69823   0.70352   0.70554   0.71346
 Alpha virt. eigenvalues --    0.71508   0.71765   0.71893   0.72701   0.73025
 Alpha virt. eigenvalues --    0.73692   0.73820   0.74220   0.74485   0.74969
 Alpha virt. eigenvalues --    0.76072   0.76466   0.76787   0.77094   0.77528
 Alpha virt. eigenvalues --    0.78212   0.78544   0.79422   0.79574   0.80047
 Alpha virt. eigenvalues --    0.81007   0.81197   0.81794   0.82450   0.83230
 Alpha virt. eigenvalues --    0.83666   0.84245   0.84476   0.84953   0.85318
 Alpha virt. eigenvalues --    0.85839   0.85933   0.87148   0.87274   0.88302
 Alpha virt. eigenvalues --    0.89195   0.89980   0.90093   0.90549   0.91547
 Alpha virt. eigenvalues --    0.92128   0.92809   0.93216   0.93879   0.94762
 Alpha virt. eigenvalues --    0.95408   0.95585   0.96020   0.97522   0.97903
 Alpha virt. eigenvalues --    0.98619   0.99535   0.99852   1.00921   1.01468
 Alpha virt. eigenvalues --    1.02175   1.02301   1.04367   1.04502   1.04878
 Alpha virt. eigenvalues --    1.05593   1.06105   1.06997   1.07527   1.08777
 Alpha virt. eigenvalues --    1.08939   1.10334   1.10907   1.11338   1.11975
 Alpha virt. eigenvalues --    1.12472   1.13263   1.14055   1.14652   1.15591
 Alpha virt. eigenvalues --    1.15980   1.16888   1.17786   1.18691   1.19293
 Alpha virt. eigenvalues --    1.19766   1.20125   1.21388   1.21485   1.22993
 Alpha virt. eigenvalues --    1.23280   1.23989   1.24278   1.25826   1.26312
 Alpha virt. eigenvalues --    1.27788   1.28153   1.29192   1.29853   1.30902
 Alpha virt. eigenvalues --    1.31585   1.32307   1.32622   1.33928   1.34183
 Alpha virt. eigenvalues --    1.35089   1.35498   1.36534   1.37085   1.38051
 Alpha virt. eigenvalues --    1.39325   1.39993   1.40774   1.41258   1.42707
 Alpha virt. eigenvalues --    1.43224   1.44216   1.45195   1.45868   1.46967
 Alpha virt. eigenvalues --    1.47559   1.48387   1.49365   1.50463   1.51210
 Alpha virt. eigenvalues --    1.51951   1.52656   1.54273   1.54971   1.55253
 Alpha virt. eigenvalues --    1.56383   1.56989   1.58564   1.59227   1.59868
 Alpha virt. eigenvalues --    1.60155   1.61467   1.61970   1.62315   1.63343
 Alpha virt. eigenvalues --    1.63740   1.64577   1.64756   1.65268   1.66321
 Alpha virt. eigenvalues --    1.67576   1.68226   1.68905   1.69958   1.70414
 Alpha virt. eigenvalues --    1.71331   1.71812   1.72363   1.73446   1.73659
 Alpha virt. eigenvalues --    1.74494   1.75183   1.75718   1.76960   1.77976
 Alpha virt. eigenvalues --    1.78839   1.79591   1.80176   1.81434   1.81959
 Alpha virt. eigenvalues --    1.83023   1.83128   1.83918   1.84912   1.85042
 Alpha virt. eigenvalues --    1.86155   1.86667   1.87581   1.87993   1.89011
 Alpha virt. eigenvalues --    1.89629   1.89900   1.90606   1.91004   1.92047
 Alpha virt. eigenvalues --    1.92488   1.94099   1.94809   1.95144   1.96004
 Alpha virt. eigenvalues --    1.96965   1.97750   1.98830   1.99186   1.99641
 Alpha virt. eigenvalues --    2.00691   2.01190   2.01478   2.02571   2.02803
 Alpha virt. eigenvalues --    2.03585   2.04289   2.06588   2.07819   2.08080
 Alpha virt. eigenvalues --    2.08781   2.10281   2.10661   2.12066   2.12676
 Alpha virt. eigenvalues --    2.13502   2.14523   2.14798   2.15520   2.17163
 Alpha virt. eigenvalues --    2.17534   2.18374   2.19164   2.19568   2.20702
 Alpha virt. eigenvalues --    2.21240   2.22029   2.22627   2.22908   2.24072
 Alpha virt. eigenvalues --    2.25627   2.26476   2.27371   2.28925   2.29690
 Alpha virt. eigenvalues --    2.30256   2.31266   2.31567   2.33076   2.33838
 Alpha virt. eigenvalues --    2.34659   2.35835   2.37662   2.38423   2.40457
 Alpha virt. eigenvalues --    2.40917   2.41395   2.42393   2.43916   2.44715
 Alpha virt. eigenvalues --    2.46559   2.47672   2.47871   2.48890   2.49902
 Alpha virt. eigenvalues --    2.51287   2.52346   2.53707   2.54698   2.55029
 Alpha virt. eigenvalues --    2.56955   2.57784   2.58840   2.59212   2.60483
 Alpha virt. eigenvalues --    2.60859   2.61311   2.63418   2.63972   2.65346
 Alpha virt. eigenvalues --    2.66503   2.68242   2.68257   2.69930   2.70855
 Alpha virt. eigenvalues --    2.71964   2.73137   2.75048   2.75953   2.76913
 Alpha virt. eigenvalues --    2.77581   2.79473   2.80389   2.83059   2.84181
 Alpha virt. eigenvalues --    2.85057   2.85724   2.86264   2.87721   2.89251
 Alpha virt. eigenvalues --    2.90238   2.90657   2.92891   2.93188   2.95020
 Alpha virt. eigenvalues --    2.98900   3.01856   3.02628   3.03954   3.05911
 Alpha virt. eigenvalues --    3.07489   3.10199   3.16429   3.19596   3.23866
 Alpha virt. eigenvalues --    3.30821   3.32300   3.33710   3.34740   3.36541
 Alpha virt. eigenvalues --    3.38007   3.39323   3.40497   3.41045   3.43633
 Alpha virt. eigenvalues --    3.45033   3.47159   3.48319   3.49607   3.51970
 Alpha virt. eigenvalues --    3.55764   3.63211   3.66083   3.70004   3.71071
 Alpha virt. eigenvalues --    3.78720   3.81622   3.90736   3.92908   3.95353
 Alpha virt. eigenvalues --    3.95889   4.01517   4.13712   4.15079   4.22673
 Alpha virt. eigenvalues --    4.37186   5.01798
          Condensed to atoms (all electrons):
               1          2          3          4          5          6
     1  N    8.166701  -0.064260   0.379015  -0.648767  -0.202188  -0.515690
     2  C   -0.064260  11.529489  -3.965438   2.705407  -2.070226  -0.886527
     3  C    0.379015  -3.965438  13.540219  -6.208973   1.762363  -0.586830
     4  C   -0.648767   2.705407  -6.208973  25.751355 -10.917771  -1.726544
     5  C   -0.202188  -2.070226   1.762363 -10.917771  25.380550  -3.574242
     6  C   -0.515690  -0.886527  -0.586830  -1.726544  -3.574242  16.048826
     7  C    0.742063  -1.127212   1.101147  -1.604538  -9.391666  -1.629439
     8  C   -0.008933  -0.154793   0.009880  -0.006942   0.095669  -0.887371
     9  C    0.003234   0.009415  -0.015271  -0.102209   0.432930  -0.004424
    10  C    0.044830  -0.042283   0.006555   0.021693  -0.416171  -0.166833
    11  N   -0.083597   0.165907  -0.214448  -0.462507   2.287671   0.404410
    12  C   -0.027262  -0.038905   0.103784  -0.268047   0.709161  -0.054608
    13  H   -0.102980  -0.810672   0.277705   0.154627   0.042466   0.103383
    14  H   -0.074420   0.506507  -1.486845   0.895548  -0.200496   0.012776
    15  H   -0.052623  -0.246817   0.931012  -2.885192   1.317396   0.113100
    16  H   -0.178680  -0.181296   0.070023  -0.135145  -0.784300  -0.952821
    17  H    0.012268   0.042067  -0.051195   0.040681   1.030482  -0.242459
    18  H   -0.016833   0.000693  -0.002261  -0.045558   0.377090   0.278640
    19  H    0.031709   0.009669  -0.026840   0.062496  -0.086957  -0.204532
    20  H   -0.001542   0.002350  -0.001897  -0.004316  -0.006423   0.033428
    21  H    0.000455  -0.002334   0.000776   0.007462  -0.091196  -0.033524
    22  H   -0.001051  -0.000933   0.000625   0.027352   0.168233   0.021394
    23  H    0.002488  -0.002261   0.000723   0.026679  -0.219720  -0.022266
    24  H   -0.002004   0.013764  -0.024576   0.043556   0.117778   0.022447
    25  H   -0.002259  -0.010188   0.025789  -0.039334  -0.023112  -0.037365
    26  H    0.006823  -0.031741   0.039668   0.030039  -0.020906  -0.012624
    27  O   -0.053825   0.118787  -0.034193   0.031589  -0.121174  -0.127792
    28  O    0.012857  -0.006991   0.006381  -0.017729  -0.036436  -0.079738
    29  O   -0.018987   0.032857  -0.008051  -0.003512   0.043082  -0.106747
    30  H    0.004595  -0.035854   0.022252  -0.011162   0.014849   0.011636
    31  H   -0.001355   0.004727  -0.002692   0.007464   0.013175   0.029010
    32  H   -0.003244   0.001431   0.000826   0.001331  -0.003374   0.006595
    33  H    0.221264   0.101737  -0.129843   0.040810  -0.012586  -0.142881
    34  H   -0.024267  -0.002092  -0.004720  -0.002021   0.024281   0.007238
    35  H    0.007981  -0.007734   0.002183  -0.007334   0.005505  -0.005649
    36  H    0.020749  -0.028258   0.023369  -0.032537  -0.237242  -0.137255
    37  O    0.004327  -0.000754   0.000245  -0.004580  -0.001393   0.003845
    38  H   -0.001184   0.002120  -0.002407   0.000877  -0.005062   0.008685
    39  H    0.000783   0.000219  -0.000469  -0.000064   0.001144  -0.000331
    40  O   -0.013472  -0.022578   0.020292  -0.004362   0.006119   0.004847
    41  H    0.002969   0.000798  -0.003196  -0.000398   0.000172   0.002942
    42  H   -0.004981  -0.014691   0.010318   0.000230  -0.000490   0.003155
               7          8          9         10         11         12
     1  N    0.742063  -0.008933   0.003234   0.044830  -0.083597  -0.027262
     2  C   -1.127212  -0.154793   0.009415  -0.042283   0.165907  -0.038905
     3  C    1.101147   0.009880  -0.015271   0.006555  -0.214448   0.103784
     4  C   -1.604538  -0.006942  -0.102209   0.021693  -0.462507  -0.268047
     5  C   -9.391666   0.095669   0.432930  -0.416171   2.287671   0.709161
     6  C   -1.629439  -0.887371  -0.004424  -0.166833   0.404410  -0.054608
     7  C   27.268368  -1.513145  -0.127978  -0.360684  -6.633247  -1.150114
     8  C   -1.513145   8.669602  -0.832349   0.673129  -0.972713  -0.228235
     9  C   -0.127978  -0.832349   6.121891   0.080472  -0.334023   0.031117
    10  C   -0.360684   0.673129   0.080472   5.824137  -0.245951  -0.204817
    11  N   -6.633247  -0.972713  -0.334023  -0.245951  16.492561   1.108584
    12  C   -1.150114  -0.228235   0.031117  -0.204817   1.108584   4.851528
    13  H   -0.031297   0.003838   0.000415  -0.001143   0.009199   0.003455
    14  H    0.025622   0.002303   0.000651   0.000386  -0.002710  -0.009115
    15  H   -0.018221  -0.080980  -0.003602  -0.004401   0.001580   0.063893
    16  H    0.022928   0.105502  -0.033259   0.034771  -0.163161   0.042698
    17  H   -2.766757   0.738250  -0.031619   0.063484  -0.175636  -0.091064
    18  H    0.102034  -1.169309   0.166641  -0.226986   0.415436   0.085040
    19  H   -0.054195  -0.140923   0.343177   0.069266  -0.156986  -0.052814
    20  H   -0.038509   0.218527  -0.253901   0.166067  -0.120553  -0.014566
    21  H    0.281373   0.207162  -0.379524  -0.090102   0.084862   0.012612
    22  H    0.083726  -0.033743   0.039973  -0.360498  -0.265038  -0.016950
    23  H    0.607928   0.132494   0.072411  -0.136845  -1.164030  -0.150220
    24  H   -0.243323   0.042654   0.013866   0.112205  -0.666320   0.300198
    25  H    0.250935  -0.068207   0.063985   0.018911  -0.351997   0.131199
    26  H    0.078759   0.087595  -0.043328  -0.063841   0.085331   0.047840
    27  O   -0.004502  -0.003120  -0.002326   0.000394   0.002898   0.000895
    28  O    0.091492   0.031500  -0.002570   0.023905  -0.107592  -0.021336
    29  O   -0.021170   0.006384   0.000299   0.002133  -0.027263   0.010300
    30  H   -0.003337   0.001738   0.000035   0.000501   0.002399   0.000262
    31  H   -0.054038   0.014973  -0.012570   0.025925  -0.026175   0.014616
    32  H   -0.013081  -0.003374  -0.000577  -0.000430   0.011233   0.002234
    33  H    0.044691  -0.019862   0.000457  -0.003722  -0.013617  -0.005044
    34  H    0.013853   0.001872  -0.000227  -0.001829  -0.005633  -0.001202
    35  H    0.007870   0.011452   0.008903   0.009472  -0.021576  -0.010332
    36  H    0.779683   0.025057  -0.004453  -0.127735  -0.411881  -0.187353
    37  O   -0.000730  -0.000903   0.000116  -0.000317   0.003644  -0.002401
    38  H   -0.002778  -0.000446   0.000072   0.000059   0.002477  -0.001058
    39  H    0.000352  -0.000038   0.000021  -0.000130  -0.000579   0.000343
    40  O   -0.001535   0.000301   0.000008   0.000162   0.000726   0.000698
    41  H    0.000597   0.000033  -0.000002   0.000010  -0.000126   0.000014
    42  H   -0.001356   0.000146  -0.000040   0.000152   0.000558   0.000082
              13         14         15         16         17         18
     1  N   -0.102980  -0.074420  -0.052623  -0.178680   0.012268  -0.016833
     2  C   -0.810672   0.506507  -0.246817  -0.181296   0.042067   0.000693
     3  C    0.277705  -1.486845   0.931012   0.070023  -0.051195  -0.002261
     4  C    0.154627   0.895548  -2.885192  -0.135145   0.040681  -0.045558
     5  C    0.042466  -0.200496   1.317396  -0.784300   1.030482   0.377090
     6  C    0.103383   0.012776   0.113100  -0.952821  -0.242459   0.278640
     7  C   -0.031297   0.025622  -0.018221   0.022928  -2.766757   0.102034
     8  C    0.003838   0.002303  -0.080980   0.105502   0.738250  -1.169309
     9  C    0.000415   0.000651  -0.003602  -0.033259  -0.031619   0.166641
    10  C   -0.001143   0.000386  -0.004401   0.034771   0.063484  -0.226986
    11  N    0.009199  -0.002710   0.001580  -0.163161  -0.175636   0.415436
    12  C    0.003455  -0.009115   0.063893   0.042698  -0.091064   0.085040
    13  H    2.251631  -0.121865  -0.010814   0.011375   0.000675   0.001198
    14  H   -0.121865   2.204430  -0.143416  -0.009684   0.000121  -0.001954
    15  H   -0.010814  -0.143416   3.129605  -0.008489  -0.171562   0.009080
    16  H    0.011375  -0.009684  -0.008489   4.643661  -0.052494   0.082712
    17  H    0.000675   0.000121  -0.171562  -0.052494   3.507219  -0.379846
    18  H    0.001198  -0.001954   0.009080   0.082712  -0.379846   2.681469
    19  H   -0.001189   0.001532  -0.008503  -0.200764   0.243623  -0.718765
    20  H    0.000081  -0.000043   0.002526  -0.007164   0.062083  -0.322679
    21  H   -0.000015  -0.000002  -0.000434   0.037742  -0.065016   0.200785
    22  H    0.000114  -0.000452   0.001808   0.019374  -0.101716   0.068549
    23  H   -0.000124   0.000147  -0.003811  -0.032421   0.097640  -0.043361
    24  H    0.000445   0.000159   0.012761   0.006081   0.064046   0.010742
    25  H    0.000336  -0.000967   0.002924  -0.002137   0.017193   0.002047
    26  H   -0.003038  -0.000901  -0.015024   0.005640   0.000830  -0.003101
    27  O    0.007965   0.000378  -0.000239  -0.005889  -0.000064   0.000539
    28  O   -0.000242   0.000147  -0.001405   0.051692   0.000469   0.000264
    29  O    0.002237  -0.000340   0.000195   0.056664  -0.001110   0.000444
    30  H    0.005929  -0.000465   0.000098   0.015464  -0.000084  -0.000012
    31  H    0.000207  -0.000101   0.000893  -0.000221  -0.001004   0.002012
    32  H    0.000868  -0.000108   0.000471   0.002490  -0.000863   0.000415
    33  H   -0.118560   0.014542  -0.000867  -0.050976  -0.001545   0.000058
    34  H   -0.001435   0.000244  -0.000559  -0.009813   0.000759  -0.000515
    35  H   -0.000670   0.000392  -0.001089  -0.012465   0.001757  -0.001482
    36  H   -0.002154   0.001129  -0.006563  -0.043389   0.013970  -0.028169
    37  O   -0.000529   0.000063  -0.000105  -0.004893   0.000296  -0.000048
    38  H   -0.000350   0.000160   0.000109  -0.001433   0.000002  -0.000023
    39  H    0.000032  -0.000019  -0.000015  -0.000212   0.000023  -0.000004
    40  O    0.009434   0.000237   0.000192   0.001066  -0.000166   0.000003
    41  H    0.000220  -0.000221   0.000061  -0.000724   0.000021  -0.000005
    42  H    0.001139  -0.000255  -0.000182   0.003833  -0.000055   0.000046
              19         20         21         22         23         24
     1  N    0.031709  -0.001542   0.000455  -0.001051   0.002488  -0.002004
     2  C    0.009669   0.002350  -0.002334  -0.000933  -0.002261   0.013764
     3  C   -0.026840  -0.001897   0.000776   0.000625   0.000723  -0.024576
     4  C    0.062496  -0.004316   0.007462   0.027352   0.026679   0.043556
     5  C   -0.086957  -0.006423  -0.091196   0.168233  -0.219720   0.117778
     6  C   -0.204532   0.033428  -0.033524   0.021394  -0.022266   0.022447
     7  C   -0.054195  -0.038509   0.281373   0.083726   0.607928  -0.243323
     8  C   -0.140923   0.218527   0.207162  -0.033743   0.132494   0.042654
     9  C    0.343177  -0.253901  -0.379524   0.039973   0.072411   0.013866
    10  C    0.069266   0.166067  -0.090102  -0.360498  -0.136845   0.112205
    11  N   -0.156986  -0.120553   0.084862  -0.265038  -1.164030  -0.666320
    12  C   -0.052814  -0.014566   0.012612  -0.016950  -0.150220   0.300198
    13  H   -0.001189   0.000081  -0.000015   0.000114  -0.000124   0.000445
    14  H    0.001532  -0.000043  -0.000002  -0.000452   0.000147   0.000159
    15  H   -0.008503   0.002526  -0.000434   0.001808  -0.003811   0.012761
    16  H   -0.200764  -0.007164   0.037742   0.019374  -0.032421   0.006081
    17  H    0.243623   0.062083  -0.065016  -0.101716   0.097640   0.064046
    18  H   -0.718765  -0.322679   0.200785   0.068549  -0.043361   0.010742
    19  H    2.414098   0.205926  -0.456890  -0.064174   0.065818   0.001032
    20  H    0.205926   2.118161  -0.623321  -0.239705   0.114521   0.003716
    21  H   -0.456890  -0.623321   2.305319   0.197073  -0.318639  -0.003368
    22  H   -0.064174  -0.239705   0.197073   2.468380  -0.580483   0.050346
    23  H    0.065818   0.114521  -0.318639  -0.580483   2.947585   0.026404
    24  H    0.001032   0.003716  -0.003368   0.050346   0.026404   2.093880
    25  H   -0.005081  -0.002571   0.010686   0.011671   0.002988  -0.362839
    26  H    0.009358   0.000003  -0.007016   0.007845   0.011213  -0.388726
    27  O   -0.003405  -0.000168  -0.000144  -0.000034   0.000152   0.000414
    28  O   -0.006059  -0.004284   0.004779  -0.004516   0.056691  -0.007658
    29  O   -0.000080  -0.000159   0.001515   0.000112   0.000945   0.000669
    30  H    0.000410   0.000004  -0.000140   0.000001   0.000000  -0.000021
    31  H    0.003308   0.001023   0.001524   0.002573  -0.001828   0.006710
    32  H   -0.002171  -0.000105   0.000653   0.000399  -0.001620   0.000349
    33  H   -0.001630  -0.000006   0.000575   0.000039   0.000665   0.000254
    34  H    0.002802   0.000080   0.000082  -0.000068   0.000322  -0.000151
    35  H    0.006753  -0.000047  -0.003882  -0.002348   0.005086  -0.000994
    36  H    0.023889  -0.002171   0.027744   0.026701   0.080934  -0.055374
    37  O   -0.000081   0.000016  -0.000088  -0.000068  -0.000120  -0.000308
    38  H   -0.000078   0.000015  -0.000018  -0.000053  -0.000033  -0.000203
    39  H    0.000008   0.000001  -0.000004  -0.000003  -0.000003   0.000033
    40  O    0.000148   0.000004  -0.000015   0.000004   0.000016   0.000046
    41  H    0.000035   0.000000   0.000000   0.000004  -0.000002  -0.000023
    42  H   -0.000217  -0.000005  -0.000006  -0.000004   0.000021   0.000034
              25         26         27         28         29         30
     1  N   -0.002259   0.006823  -0.053825   0.012857  -0.018987   0.004595
     2  C   -0.010188  -0.031741   0.118787  -0.006991   0.032857  -0.035854
     3  C    0.025789   0.039668  -0.034193   0.006381  -0.008051   0.022252
     4  C   -0.039334   0.030039   0.031589  -0.017729  -0.003512  -0.011162
     5  C   -0.023112  -0.020906  -0.121174  -0.036436   0.043082   0.014849
     6  C   -0.037365  -0.012624  -0.127792  -0.079738  -0.106747   0.011636
     7  C    0.250935   0.078759  -0.004502   0.091492  -0.021170  -0.003337
     8  C   -0.068207   0.087595  -0.003120   0.031500   0.006384   0.001738
     9  C    0.063985  -0.043328  -0.002326  -0.002570   0.000299   0.000035
    10  C    0.018911  -0.063841   0.000394   0.023905   0.002133   0.000501
    11  N   -0.351997   0.085331   0.002898  -0.107592  -0.027263   0.002399
    12  C    0.131199   0.047840   0.000895  -0.021336   0.010300   0.000262
    13  H    0.000336  -0.003038   0.007965  -0.000242   0.002237   0.005929
    14  H   -0.000967  -0.000901   0.000378   0.000147  -0.000340  -0.000465
    15  H    0.002924  -0.015024  -0.000239  -0.001405   0.000195   0.000098
    16  H   -0.002137   0.005640  -0.005889   0.051692   0.056664   0.015464
    17  H    0.017193   0.000830  -0.000064   0.000469  -0.001110  -0.000084
    18  H    0.002047  -0.003101   0.000539   0.000264   0.000444  -0.000012
    19  H   -0.005081   0.009358  -0.003405  -0.006059  -0.000080   0.000410
    20  H   -0.002571   0.000003  -0.000168  -0.004284  -0.000159   0.000004
    21  H    0.010686  -0.007016  -0.000144   0.004779   0.001515  -0.000140
[...]
 -0.00005300,0.00002982,-0.00005109,-0.00002618,0.00001258,0.00003555,-
 0.00005527,0.00009314,-0.00003366,0.00003448,-0.00000659,0.00000870,0.
 00000876,-0.00001399,-0.00000727,-0.00000720,-0.00003030,-0.00000052,0
 .00001827,-0.00001413,-0.00000568,0.00000701,-0.00000575,-0.00000465,-
 0.00000403,0.00000142,-0.00001731,0.00002360,0.00000406,0.00008475,-0.
 00000344,-0.00004359,-0.00006870,0.00004953,-0.00002735,-0.00006338,-0
 .00016171,0.00002122,-0.00236144,0.00115393,0.00083671,0.00005497,0.00
 012097,-0.00030266,-0.00096351,0.00115459,-0.00697040,-0.00026776,-0.0
 0007075,-0.00004806,-0.00003956,0.00000726,0.00007319,0.00280383,-0.00
 195505,0.01029957,0.00173187,0.00129456,0.00032490,0.00225990,-0.00342
 069,0.00086164,0.00006787,0.00010042,0.00040501,-0.00010598,-0.0000987
 1,0.00012607,-0.04785639,0.06976648,-0.07325860,0.06473880,-0.08577426
 ,0.08417007,-0.00016773,-0.00012512,0.00001287,-0.00000438,0.00009975,
 0.00006601,-0.00001411,-0.00000823,-0.00005303,0.00000838,0.00002529,-
 0.00001670,0.00005444,-0.00001912,0.00000194,0.00013575,-0.00001258,-0
 .00001174,0.00007312,-0.00014379,0.00003777,0.00000017,0.00003397,-0.0
 0001282,0.00001283,-0.00000519,0.00001325,-0.00005692,0.00005901,-0.00
 004742,0.00012014,0.00004078,-0.00013992,-0.00018753,0.00001097,0.0001
 2259,0.00000260,-0.00000107,0.00000148,-0.00000298,-0.00001059,0.00000
 716,-0.00001207,-0.00002300,0.00000462,0.00002783,-0.00001728,0.000004
 60,-0.00001372,0.00001118,0.00000094,0.00000720,0.00000647,-0.00001180
 ,-0.00000477,-0.00000224,-0.00001657,0.00000493,0.00000966,-0.00001232
 ,-0.00000163,-0.00000049,-0.00001031,-0.00000766,-0.00000240,0.0000050
 1,-0.00000865,0.00001357,0.00001056,0.00005672,0.00001884,-0.00004304,
 -0.00012929,0.00009497,-0.00000049,0.00001186,-0.00021186,0.00014185,-
 0.00011489,-0.00014065,-0.00004741,-0.00019992,0.00004611,-0.00021598,
 0.00020217,0.00081139,0.00077876,0.00004237,0.00000744,-0.00001550,-0.
 00003468,-0.00000237,0.00007503,-0.00118173,-0.00191325,-0.00025717,0.
 00011256,0.00016013,0.00004934,-0.00007178,0.00009842,-0.00010549,0.00
 050303,-0.00030140,-0.00002170,0.00005722,0.00003813,0.00014710,-0.101
 43383,-0.08668020,0.17336805,0.01306328,0.01441801,-0.02596365,0.09191
 821,0.00001092,-0.00000863,0.00004744,0.00000187,-0.00000092,0.0000409
 4,0.00007007,0.00002353,-0.00001844,-0.00004574,0.00002385,-0.00000926
 ,-0.00005121,0.00000651,-0.00002935,0.00005017,-0.00000573,0.00002234,
 -0.00004566,0.00003289,-0.00001576,-0.00000306,-0.00001969,0.00001617,
 0.00001417,0.00000500,-0.00000808,-0.00004157,0.00004628,-0.00000167,0
 .00009086,-0.00009202,-0.00000667,-0.00011587,0.00009845,-0.00002334,-
 0.00000209,-0.00001076,0.00002984,-0.00001181,-0.00003209,0.00001992,-
 0.00001178,-0.00000141,0.00001103,-0.00002572,0.00000308,0.00000691,0.
 00000376,-0.00000694,0.00000051,0.00000111,-0.00000106,0.00000177,-0.0
 0000039,-0.00000098,0.00000784,0.00000679,-0.00000168,-0.00000122,-0.0
 0000099,-0.00000532,-0.00000389,0.00000847,0.00000041,0.00000377,0.000
 00547,-0.00001608,-0.00000411,-0.00000170,-0.00002129,0.00000518,0.000
 05891,-0.00003538,-0.00000262,-0.00002146,0.00002335,0.00003861,-0.000
 03943,0.00012278,-0.00022507,0.00023669,-0.00017219,0.00007620,0.00184
 359,-0.00319694,-0.00512114,0.00002453,0.00005152,0.00001898,0.0000643
 1,0.00006903,-0.00005232,-0.00108610,0.00669273,0.00340873,-0.00005986
 ,-0.00008092,-0.00002323,0.00012615,-0.00022299,0.00052894,-0.00064864
 ,0.00013936,-0.00026683,0.00003375,0.00005368,-0.00000299,-0.05790710,
 -0.14386743,0.19766908,-0.01591617,-0.01123740,0.02235322,0.07202507,0
 .15198054,-0.00020914,-0.00021633,-0.00006668,0.00001338,0.00011744,0.
 00003241,-0.00004512,0.00001229,-0.00000353,0.00001868,0.00003131,0.00
 000977,0.00001191,-0.00004101,-0.00002364,0.00011384,-0.00003314,-0.00
 002121,0.00006709,-0.00003309,0.00002716,0.00000221,0.00002641,-0.0000
 1084,0.00000252,-0.00000336,0.00001073,0.00003559,0.00001601,-0.000014
 01,-0.00006371,-0.00003775,-0.00012251,-0.00003760,-0.00001799,0.00005
 450,0.00000762,0.00003823,0.00001288,-0.00000323,-0.00001338,0.0000125
 6,-0.00001767,-0.00000871,0.00000499,0.00000911,0.00000179,0.00000076,
 -0.00002120,-0.00000617,-0.00000974,-0.00000276,-0.00000109,-0.0000056
 7,-0.00000016,0.00000335,-0.00001618,-0.00000667,0.00000166,-0.0000046
 6,0.00000449,0.00000137,-0.00000841,-0.00001796,-0.00001055,-0.0000067
 4,0.00000110,0.00000788,0.00000846,-0.00004799,-0.00002055,-0.00000993
 ,-0.00001957,0.00003255,0.00003156,0.00004638,-0.00001356,0.00009912,-
 0.00022259,-0.00032091,0.00014414,-0.00032708,-0.00006509,-0.00000429,
 0.00011310,-0.00156452,-0.00055254,0.00000128,0.00001047,-0.00005391,0
 .00002615,-0.00001489,-0.00001127,0.00151022,0.00367856,-0.00275958,0.
 00029493,0.00028354,0.00013035,-0.00009031,0.00034003,-0.00003669,0.00
 038888,-0.00019864,-0.00018099,0.00016011,0.00014493,0.00011404,0.1364
 4777,0.21320535,-0.34796349,0.00888583,0.00365477,-0.01004267,-0.14700
 968,-0.21852865,0.36059223,-0.00146288,-0.00094517,-0.00000406,-0.0006
 9350,-0.00008329,0.00038599,-0.00006581,0.00011860,0.00019882,-0.00009
 047,0.00019453,-0.00003955,-0.00008273,-0.00020880,-0.00022704,0.00069
 702,-0.00046346,0.00000244,0.00020524,-0.00005384,0.00007760,0.0000053
 0,0.00007715,-0.00005595,-0.00001401,-0.00002797,0.00003082,0.00018433
 ,-0.00003873,-0.00001909,-0.00031872,0.00000285,-0.00007693,0.00012708
 ,-0.00002773,0.00005314,-0.00104461,0.00006866,0.00013118,-0.00008020,
 -0.00003548,-0.00000131,-0.00003728,0.00002148,-0.00001852,0.00008575,
 0.00000055,0.00000790,-0.00005577,0.00000527,-0.00003093,-0.00001743,-
 0.00001217,-0.00000798,0.00001081,0.00000719,-0.00003808,-0.00003605,0
 .00000494,-0.00000065,0.00001133,0.00001905,-0.00000202,-0.00003952,-0
 .00001779,-0.00002310,-0.00000367,0.00002268,0.00000421,-0.00007279,-0
 .00003057,0.,0.00001932,0.00000987,0.00001492,-0.00000210,0.00005461,0
 .00004736,-0.00303627,0.00312951,0.01052273,-0.00053280,0.00010064,0.0
 0006964,-0.00084926,0.00129512,0.00049780,-0.00264554,0.00067436,0.000
 28536,0.00000358,-0.00009263,-0.00005926,0.00054457,-0.00126742,-0.001
 46457,0.00218205,0.00124440,-0.00010711,0.00055074,-0.00155040,0.00048
 552,0.00090044,-0.00020089,-0.00010550,0.00016861,0.00008807,0.0000759
 5,-0.00517524,0.01064207,-0.01021091,-0.00293753,-0.00315621,0.0079050
 8,-0.00272521,0.00129094,-0.00010184,0.62221958,0.00080655,0.00102964,
 0.00075988,0.00154078,-0.00136025,0.00034374,-0.00106233,0.00047214,0.
 00003939,0.00033693,-0.00037298,-0.00026293,0.00012915,0.00040546,0.00
 038694,-0.00075546,0.00004392,-0.00030129,0.00016232,-0.00028349,0.000
 18832,-0.00003221,0.00008149,-0.00007469,-0.00001144,-0.00004928,0.000
 01633,-0.00005815,0.00004884,-0.00006044,0.00014166,0.00032927,0.00005
 050,-0.00014615,0.00004704,0.00007948,0.00004094,0.00038383,-0.0000359
 3,0.00010348,0.00005701,0.00008786,-0.00007680,0.00001366,-0.00000459,
 -0.00014500,-0.00006557,0.00002626,-0.00000635,0.00006083,0.00000864,0
 .00001535,0.00001274,-0.00000329,0.00000069,-0.00002572,-0.00002364,-0
 .00000082,0.00002820,-0.00000562,-0.00002112,0.00002192,0.00001211,0.0
 0000858,0.00000612,0.00001308,-0.00003325,0.00003173,-0.00000825,0.000
 08851,0.00001165,-0.00001129,-0.00007283,0.00005578,-0.00002807,-0.000
 05391,-0.00016350,0.00000560,0.00321176,0.00418513,-0.00395939,0.00098
 938,0.00035873,-0.00001123,0.00136873,0.00006853,-0.00194664,0.0011495
 3,-0.00024370,0.00014826,-0.00004723,0.00002380,0.00004092,-0.00175594
 ,0.00113166,0.00233105,-0.00149988,-0.00315289,-0.00195861,-0.00044541
 ,-0.00101864,0.00131159,-0.00155699,0.00011317,0.00017244,-0.00034396,
 -0.00050247,-0.00024179,0.00929097,-0.00438553,0.00771808,-0.00403435,
 -0.00599963,-0.00435717,0.00114299,-0.00028987,-0.00087201,-0.04808304
 ,0.06908337,0.00213835,0.00169694,0.00151442,0.00030730,-0.00020462,-0
 .00013480,0.00020847,-0.00000097,0.00008082,0.00023389,-0.00008708,0.0
 0009421,0.00017765,0.00021595,0.00025495,-0.00074748,0.00046459,-0.000
 07275,-0.00014911,0.00022563,-0.00006614,-0.00002644,-0.00006221,0.000
 00551,-0.00001350,0.00002024,-0.00002539,-0.00002921,-0.00005635,0.000
 04102,0.00003652,-0.00003868,0.00019399,0.00019570,-0.00005859,-0.0002
 1473,0.00002952,-0.00021460,-0.00055983,0.00009161,0.00011166,0.000007
 23,0.00005746,0.00001612,-0.00000356,-0.00017038,0.00003635,-0.0001452
 2,0.00005931,-0.00002386,0.00002525,-0.00000114,-0.00000252,0.00001944
 ,0.00000423,0.00000158,0.00004604,0.00001331,-0.00001311,0.00001561,-0
 .00000557,-0.00000408,0.00001059,0.00002263,0.00001462,0.00001248,0.00
 001026,-0.00002647,-0.00000988,-0.00003615,0.00001829,0.00004461,0.000
 04799,-0.00005122,0.00001037,0.00004074,0.00012180,-0.00004835,0.01311
 495,-0.00505505,-0.00677761,0.00022509,-0.00009837,0.00031198,0.000863
 82,-0.00244844,0.00536260,0.00172175,-0.00021148,0.00114571,0.00001152
 ,0.00004032,-0.00005573,0.00140785,-0.00150791,-0.00505631,-0.00506170
 ,-0.00452846,-0.00324179,-0.00279002,0.00633218,-0.00498187,-0.0003426
 0,0.00010694,-0.00006982,-0.00006752,-0.00005771,-0.00021486,-0.011089
 67,0.00933761,-0.00091170,0.00903334,-0.00226818,-0.00405345,-0.000292
 46,-0.00050003,0.00086975,-0.11189128,0.14252770,0.47966180,0.00022800
 ,0.00011511,0.00014569,-0.00008343,0.00003398,-0.00006168,0.00014245,-
 0.00002035,0.00004236,-0.00003475,0.00003181,0.00001695,-0.00000734,-0
 .00000620,-0.00000472,-0.00000136,0.00004199,0.00001170,-0.00004749,0.
 00000922,-0.00002158,-0.00000060,-0.00001709,0.00001039,0.00000228,0.0
 0000579,-0.00000728,-0.00004676,0.00001003,0.00000516,0.00008263,0.000
 00431,0.00002331,-0.00002359,0.00000622,-0.00001857,-0.00016547,-0.000
 08671,0.00000678,-0.00000452,-0.00000977,0.00000603,0.00001001,-0.0000
 0303,0.00000293,-0.00002154,-0.00000634,0.00000100,0.00001268,0.000000
 63,0.00000788,0.00000434,0.00000272,0.00000212,-0.00000150,-0.00000205
 ,0.00001044,0.00000934,-0.00000066,0.00000095,-0.00000364,-0.00000416,
 0.00000103,0.00001031,0.00000489,0.00000624,0.00000005,-0.00000599,-0.
 00000146,0.00001495,0.00000913,0.00000240,-0.00000446,-0.00000473,-0.0
 0000384,0.00000311,-0.00000903,-0.00000816,0.00148395,-0.00021231,-0.0
 0030932,0.00017749,-0.00001592,-0.00000669,0.00033102,-0.00027431,0.00
 002259,-0.00010411,0.00008995,0.00007105,-0.00000188,0.00002313,0.0000
 1356,-0.00019939,0.00013294,0.00013692,-0.00052590,-0.00042011,-0.0003
 3836,-0.00030319,0.00035073,-0.00019254,-0.00029983,0.00006614,0.00003
 469,-0.00004945,-0.00003861,-0.00003456,0.00143940,-0.00058230,0.00032
 310,-0.00256140,0.00022417,-0.00053251,-0.00016925,0.00017218,-0.00013
 396,-0.53959354,0.02097268,0.05665425,0.55035196,-0.00011206,-0.000168
 85,-0.00005201,-0.00027570,-0.00004847,0.00004198,0.00009518,0.0000150
 0,0.00006663,-0.00006123,0.00008005,0.00000041,-0.00005308,-0.00007059
 ,-0.00008010,0.00017187,-0.00008110,0.00002504,0.00000114,0.00002521,-
 0.00001052,0.00000163,0.00000013,-0.00000186,0.00000113,0.00000379,0.0
 0000342,0.00001650,0.00000032,0.00000354,-0.00003782,-0.00004497,-0.00
 001720,0.00001334,0.00000284,0.00000158,-0.00031199,0.00021316,0.00003
 102,-0.00004422,-0.00002355,-0.00000343,-0.00000391,0.00000796,-0.0000
 0458,0.00001243,0.00001083,-0.00000275,-0.00000526,-0.00000616,-0.0000
 0373,-0.00000386,-0.00000277,0.00000032,0.00000062,0.00000438,0.000000
 64,-0.00000232,-0.00000184,0.00000034,0.00000242,-0.00000136,-0.000002
 59,-0.00000347,-0.00000212,-0.00000300,0.00000235,-0.00000370,0.000001
 71,-0.00001153,-0.00000319,-0.00000055,0.00000775,-0.00000545,0.000001
 86,0.00000356,0.00001399,0.00000263,-0.00002471,-0.00050467,-0.0008771
 5,-0.00014421,-0.00005730,-0.00000521,-0.00018751,-0.00018430,0.000157
 87,0.00026002,0.00016140,-0.00014592,0.00001459,0.00000447,-0.00000607
 ,0.00016272,0.00013513,-0.00010284,0.00017100,0.00016582,0.00003561,-0
 .00000994,0.00040063,-0.00012024,0.00020563,-0.00001956,-0.00002922,0.
 00005156,0.00007298,0.00004154,0.00015234,-0.00161650,0.00141437,0.001
 05066,0.00144511,-0.00229749,0.00064232,-0.00015086,0.00041654,0.00222
 561,-0.00638972,-0.01036743,-0.01809863,0.00752242,-0.00001100,-0.0000
 2407,-0.00002349,0.00011037,0.00007089,0.00003068,-0.00004648,0.000055
 42,0.00003665,0.00001149,0.00000447,-0.00002106,0.00000329,-0.00000969
 ,-0.00000110,0.00006785,-0.00003911,-0.00000994,0.00003303,-0.00001400
 ,0.00002211,-0.00000132,0.00001300,-0.00000772,-0.00000035,-0.00000306
 ,0.00000562,0.00001975,0.00000039,-0.00000195,-0.00003745,0.00000146,-
 0.00002744,0.00000741,0.00000003,0.00002011,0.00002711,0.00005257,0.00
 005485,-0.00001538,-0.00001075,0.00001337,-0.00001261,0.00000152,0.000
 00299,-0.00000470,-0.00000446,0.00000074,-0.00000852,0.00000017,-0.000
 00493,-0.00000028,-0.00000126,-0.00000054,-0.00000018,-0.00000134,-0.0
 0000662,-0.00000384,0.00000136,-0.00000062,0.00000086,0.00000162,-0.00
 000095,-0.00000608,-0.00000322,-0.00000430,-0.00000103,0.00000403,0.00
 000128,-0.00001205,-0.00000537,-0.00000210,-0.00000135,0.00000286,0.00
 000269,-0.00000031,0.00000248,0.00001320,0.00052653,-0.00085077,-0.002
 59804,-0.00006245,0.00000753,-0.00000964,-0.00007703,0.00003640,0.0000
 8926,0.00075446,-0.00026029,-0.00023456,0.00000098,-0.00000951,0.00000
 303,0.00006680,-0.00013204,-0.00006165,-0.00028696,-0.00005994,-0.0000
 0149,-0.00000865,0.00006357,-0.00009833,0.00010145,-0.00002885,-0.0000
 1136,0.00002519,0.00001458,0.00001965,-0.00092143,0.00233743,-0.002102
 62,-0.00033964,-0.00365567,0.00353943,-0.00067009,0.00049683,-0.000011
 80,0.00738240,-0.01047418,-0.04671002,-0.04968465,0.01168780,0.0467609
 8,0.00248275,0.00164701,0.00088769,0.00075879,-0.00102050,-0.00035855,
 -0.00018230,0.00015557,0.00011333,0.00030156,-0.00021372,-0.00004252,0
 .00021661,0.00032922,0.00043214,-0.00097506,0.00067070,-0.00010261,-0.
 00014580,0.00013552,-0.00000816,-0.00003247,-0.00005667,0.00000797,-0.
 00000304,0.00001737,-0.00002256,-0.00011109,-0.00000400,0.00002733,0.0
 0018213,0.00002398,0.00015194,0.00004168,-0.00001696,-0.00014050,0.000
 17749,-0.00005125,-0.00024406,0.00009846,0.00007921,0.00005373,0.00002
 118,0.00001770,0.00000294,-0.00019146,0.00002783,-0.00011154,0.0000663
 2,-0.00001278,0.00003110,0.00001125,0.00000613,0.00001860,-0.00000258,
 -0.00000668,0.00004232,0.00002506,-0.00000470,0.00000944,-0.00001386,-
 0.00000881,0.00000898,0.00003285,0.00001769,0.00001923,0.00000232,-0.0
 0002246,-0.00000920,0.00001703,0.00002713,0.00002586,0.00001048,-0.000
 02730,-0.00000458,0.00002065,0.00003067,-0.00004419,0.00002107,-0.0015
 5386,-0.00416620,0.00055416,-0.00007189,0.00016029,0.00130597,-0.00256
 930,0.00309332,0.00395556,-0.00100899,-0.00042306,0.00000830,0.0000780
 3,0.00000493,0.00069467,-0.00014666,-0.00233065,-0.00801630,-0.0047791
 5,-0.00089832,-0.00307561,0.00599826,-0.00314711,-0.00090659,0.0001340
 7,0.00006656,-0.00017132,-0.00015233,-0.00021230,-0.00308481,0.0024917
 3,0.00069970,0.00457206,-0.00376875,-0.00092962,0.00012794,-0.00010344
 ,0.00021608,-0.06630282,0.01874166,0.04600670,-0.01004958,0.01412505,0
 .04307483,0.07755833,-0.00105070,-0.00158448,-0.00142133,-0.00139279,0
 .00044895,-0.00013437,0.00053952,-0.00036650,-0.00015090,-0.00007641,0
 .00011735,0.00010146,0.00000436,-0.00016333,-0.00012146,0.00030069,0.0
 0011198,0.00018505,-0.00007985,0.00011919,-0.00008684,0.00002517,-0.00
 003711,0.00004952,0.00001205,0.00002653,-0.00000491,0.00002367,-0.0000
 0865,0.00002197,-0.00006157,-0.00019611,-0.00008828,0.00000040,-0.0000
 0647,0.00001951,-0.00017074,-0.00078232,-0.00024419,-0.00004325,-0.000
 02362,-0.00004390,0.00004650,-0.00002160,0.00000485,0.00016324,0.00004
 756,0.00003205,-0.00000121,-0.00003321,-0.00000737,-0.00000812,-0.0000
 0633,-0.00000338,-0.00000136,0.00001564,0.00000388,0.00000060,-0.00001
 377,-0.00000237,0.00001414,-0.00001477,-0.00001178,-0.00000871,-0.0000
 0662,-0.00000852,0.00001929,-0.00001348,0.00000864,-0.00002222,-0.0000
 0946,-0.00000998,0.00002138,-0.00001633,0.00001442,0.00001370,0.000037
 54,0.00000258,-0.00283343,-0.00674455,0.00140910,-0.00073565,-0.000218
 06,-0.00011953,-0.00140151,0.00048479,-0.00056179,-0.00147676,-0.00002
 085,-0.00007032,0.00001767,-0.00002400,0.00000144,0.00058247,-0.000110
 17,0.00130011,0.00083488,0.00475129,0.00357913,0.00296379,-0.00177547,
 -0.00048820,0.00121107,-0.00005381,-0.00012065,0.00022053,0.00034711,0
 .00023934,0.00157317,-0.00191941,-0.00113243,-0.00238401,0.00313299,0.
 00249138,-0.00019362,0.00010560,-0.00000310,0.03499743,-0.05380237,-0.
 13340109,-0.00248945,-0.00089858,0.00073115,-0.02915434,0.05912494,-0.
 00287066,-0.00259457,-0.00236635,-0.00131257,0.00059457,0.00005023,0.0
 0030065,-0.00032208,-0.00023848,-0.00023458,0.00013129,0.00005029,-0.0
 0017304,-0.00026756,-0.00029318,0.00069049,-0.00033450,0.00007439,0.00
 005157,-0.00009924,-0.00002336,0.00004654,0.00001735,0.00003799,0.0000
 1512,0.00000019,0.00001031,0.00004480,0.00002200,-0.00001096,-0.000072
 41,-0.00007522,-0.00017355,-0.00010769,0.00002863,0.00014839,-0.000124
 18,-0.00036677,0.00033925,-0.00010514,-0.00009104,-0.00006475,-0.00000
 277,-0.00003287,0.00000356,0.00026846,-0.00000976,0.00013099,-0.000049
 31,0.00000136,-0.00002682,-0.00000599,-0.00000196,-0.00001668,-0.00000
 516,0.00000740,-0.00003258,-0.00001161,0.00000035,-0.00001169,0.000014
 05,-0.00000647,-0.00001223,-0.00002103,-0.00001366,-0.00001590,0.00000
 491,0.00001216,0.00001043,0.00000499,-0.00001883,-0.00003340,-0.000014
 27,0.00002245,0.00000226,-0.00001590,-0.00004646,0.00002596,-0.0118560
 2,0.00260956,-0.00373480,-0.00045069,-0.00001387,-0.00028734,-0.001314
 42,0.00337092,-0.00515188,-0.00008472,-0.00016374,-0.00219314,0.000009
 15,-0.00005059,0.00003384,-0.00172174,0.00162933,0.00289043,0.00787184
 ,0.00742607,0.00574042,0.00301958,-0.00784318,0.00689110,0.00063306,-0
 .00013876,0.00000407,0.00017643,0.00021099,0.00025891,0.00235569,-0.00
 195145,0.00083553,-0.00322769,0.00170444,-0.00585778,0.00012635,0.0000
 4043,-0.00021443,0.09630683,-0.13162708,-0.41637455,-0.00619964,0.0001
 9904,0.00133563,-0.08195930,0.12804112,0.41825985\\0.00000053,-0.00000
 031,0.,-0.00000132,-0.00000034,-0.00000131,0.00000009,0.00000044,0.000
 00027,0.00000006,0.00000079,0.00000036,0.00000076,-0.00000030,-0.00000
 010,0.00000018,0.00000021,0.00000007,0.00000021,-0.00000008,-0.0000005
 7,0.00000003,0.00000028,-0.00000017,-0.00000018,0.00000014,0.00000046,
 0.00000005,-0.00000047,0.,0.00000037,0.00000046,0.00000075,0.00000012,
 0.00000007,0.00000007,0.00000006,-0.00000008,-0.00000030,-0.00000027,0
 .00000008,-0.00000021,-0.00000032,0.,-0.00000014,-0.00000022,-0.000000
 13,0.00000006,-0.00000005,0.00000037,0.00000005,-0.00000002,0.00000040
 ,0.00000005,-0.00000003,0.00000007,0.00000019,0.00000008,0.00000028,0.
 00000019,0.00000013,0.00000018,0.00000023,0.00000009,0.00000043,0.0000
 0004,0.00000016,0.00000033,0.00000028,-0.00000001,0.00000027,0.0000001
 4,-0.00000015,0.00000032,-0.00000004,-0.00000073,0.00000007,0.00000008
 ,0.00000010,-0.00000045,-0.00000019,0.00000019,-0.00000048,0.00000004,
 0.00000046,0.00000009,0.00000008,0.00000011,-0.00000035,-0.00000011,0.
 00000019,0.00000028,0.00000025,0.00000020,0.00000006,0.00000015,-0.000
 00029,-0.00000056,-0.00000008,0.00000006,-0.00000037,-0.00000001,-0.00
 000011,-0.00000069,0.00000015,-0.00000048,0.00000082,-0.00000037,0.000
 00057,-0.00000062,0.00000032,-0.00000017,0.00000006,-0.00000031,0.,-0.
 00000010,-0.00000002,-0.00000041,-0.00000033,0.00000010,-0.00000003,-0
 .00000035,-0.00000007,-0.00000004,-0.00000047,-0.00000037\\\@


 ADVERTISING--  HE WHO HAS SOMETHING TO SELL AND GOES AND WHISPERS
                IN A WELL, IS NOT SO APT TO GET THE DOLLARS AS HE
                WHO CLIMBS A TREE AND HOLLERS.

                   -- FROM THE BACK OF A SUGAR PACKET
 Job cpu time:       1 days 19 hours 55 minutes  8.0 seconds.
 Elapsed time:       0 days  1 hours 34 minutes 16.7 seconds.
 File lengths (MBytes):  RWF=   1440 Int=      0 D2E=      0 Chk=     36 Scr=      8
 Normal termination of Gaussian 16 at Wed Apr 26 06:28:58 2023.
