 Entering Gaussian System, Link 0=g16
 Input=Nic5h3bMidAIntermediate.gjf
 Output=Nic5h3bMidAIntermediate.log
 Initial command:
 /sw/contrib/gaussian/g16/A03/g16/l1.exe "/gscratch/scrubbed/gds001/Gau-1930.inp" -scrdir="/gscratch/scrubbed/gds001/"
 Entering Link 1 = /sw/contrib/gaussian/g16/A03/g16/l1.exe PID=      1931.
  
 Copyright (c) 1988,1990,1992,1993,1995,1998,2003,2009,2016,
            Gaussian, Inc.  All Rights Reserved.
  
 This is part of the Gaussian(R) 16 program.  It is based on
 the Gaussian(R) 09 system (copyright 2009, Gaussian, Inc.),
 the Gaussian(R) 03 system (copyright 2003, Gaussian, Inc.),
 the Gaussian(R) 98 system (copyright 1998, Gaussian, Inc.),
 the Gaussian(R) 94 system (copyright 1995, Gaussian, Inc.),
 the Gaussian 92(TM) system (copyright 1992, Gaussian, Inc.),
 the Gaussian 90(TM) system (copyright 1990, Gaussian, Inc.),
 the Gaussian 88(TM) system (copyright 1988, Gaussian, Inc.),
 the Gaussian 86(TM) system (copyright 1986, Carnegie Mellon
 University), and the Gaussian 82(TM) system (copyright 1983,
 Carnegie Mellon University). Gaussian is a federally registered
 trademark of Gaussian, Inc.
  
 This software contains proprietary and confidential information,
 including trade secrets, belonging to Gaussian, Inc.
  
 This software is provided under written license and may be
 used, copied, transmitted, or stored only in accord with that
 written license.
  
 The following legend is applicable only to US Government
 contracts under FAR:
  
                    RESTRICTED RIGHTS LEGEND
  
 Use, reproduction and disclosure by the US Government is
 subject to restrictions as set forth in subparagraphs (a)
 and (c) of the Commercial Computer Software - Restricted
 Rights clause in FAR 52.227-19.
  
 Gaussian, Inc.
 340 Quinnipiac St., Bldg. 40, Wallingford CT 06492
  
  
 ---------------------------------------------------------------
 Warning -- This program may not be used in any manner that
 competes with the business of Gaussian, Inc. or will provide
 assistance to any competitor of Gaussian, Inc.  The licensee
 of this program is prohibited from giving any competitor of
 Gaussian, Inc. access to this program.  By using this program,
 the user acknowledges that Gaussian, Inc. is engaged in the
 business of creating and licensing software in the field of
 computational chemistry and represents and warrants to the
 licensee that it is not a competitor of Gaussian, Inc. and that
 it will not use this program in any manner prohibited above.
 ---------------------------------------------------------------
  

 Cite this work as:
 Gaussian 16, Revision A.03,
 M. J. Frisch, G. W. Trucks, H. B. Schlegel, G. E. Scuseria, 
 M. A. Robb, J. R. Cheeseman, G. Scalmani, V. Barone, 
 G. A. Petersson, H. Nakatsuji, X. Li, M. Caricato, A. V. Marenich, 
 J. Bloino, B. G. Janesko, R. Gomperts, B. Mennucci, H. P. Hratchian, 
 J. V. Ortiz, A. F. Izmaylov, J. L. Sonnenberg, D. Williams-Young, 
 F. Ding, F. Lipparini, F. Egidi, J. Goings, B. Peng, A. Petrone, 
 T. Henderson, D. Ranasinghe, V. G. Zakrzewski, J. Gao, N. Rega, 
 G. Zheng, W. Liang, M. Hada, M. Ehara, K. Toyota, R. Fukuda, 
 J. Hasegawa, M. Ishida, T. Nakajima, Y. Honda, O. Kitao, H. Nakai, 
 T. Vreven, K. Throssell, J. A. Montgomery, Jr., J. E. Peralta, 
 F. Ogliaro, M. J. Bearpark, J. J. Heyd, E. N. Brothers, K. N. Kudin, 
 V. N. Staroverov, T. A. Keith, R. Kobayashi, J. Normand, 
 K. Raghavachari, A. P. Rendell, J. C. Burant, S. S. Iyengar, 
 J. Tomasi, M. Cossi, J. M. Millam, M. Klene, C. Adamo, R. Cammi, 
 J. W. Ochterski, R. L. Martin, K. Morokuma, O. Farkas, 
 J. B. Foresman, and D. J. Fox, Gaussian, Inc., Wallingford CT, 2016.
 
 ******************************************
 Gaussian 16:  ES64L-G16RevA.03 25-Dec-2016
                 7-Mar-2023 
 ******************************************
 %nprocshared=28
 Will use up to   28 processors via shared memory.
 %mem=41GB
 -----------------------------------------
 # wB97XD/aug-cc-pVDZ opt=(MaxStep=1) freq
 -----------------------------------------
 1/8=1,18=20,19=15,26=3,38=1/1,3;
 2/9=110,12=2,17=6,18=5,40=1/2;
 3/5=16,7=10,11=2,25=1,30=1,71=1,74=-58/1,2,3;
 4//1;
 5/5=2,38=5/2;
 6/7=2,8=2,9=2,10=2,28=1/1;
 7//1,2,3,16;
 1/8=1,18=20,19=15,26=3/3(2);
 2/9=110/2;
 99//99;
 2/9=110/2;
 3/5=16,7=10,11=2,25=1,30=1,71=1,74=-58/1,2,3;
 4/5=5,16=3,69=1/1;
 5/5=2,38=5/2;
 7//1,2,3,16;
 1/8=1,18=20,19=15,26=3/3(-5);
 2/9=110/2;
 6/7=2,8=2,9=2,10=2,19=2,28=1/1;
 99/9=1/99;
 ----
 blah
 ----
 Symbolic Z-matrix:
 Charge =  1 Multiplicity = 1
 N                    -1.48169   1.01904  -1.2378 
 C                    -1.9707    2.14456  -0.70542 
 C                    -1.21666   2.96318   0.12659 
 C                     0.08831   2.58331   0.43129 
 C                     0.61386   1.41435  -0.11737 
 C                    -0.22135   0.67731  -0.95791 
 C                     2.02358   0.96506   0.17885 
 C                     2.96418   0.87946  -1.03481 
 C                     4.00891  -0.19084  -0.6363 
 C                     3.535    -0.69834   0.73304 
 N                     2.09473  -0.39475   0.75051 
 C                     1.49742  -0.50236   2.07782 
 H                    -3.00163   2.39192  -0.95737 
 H                    -1.6456    3.87798   0.53138 
 H                     0.69846   3.19855   1.09376 
 H                     0.13778  -0.23676  -1.43202 
 H                     2.45314   1.67196   0.91453 
 H                     3.40979   1.85536  -1.2529 
 H                     2.40392   0.5693   -1.92469 
 H                     5.02204   0.21877  -0.5752 
 H                     4.02858  -1.00376  -1.37072 
 H                     4.04276  -0.1582    1.55178 
 H                     3.69867  -1.77188   0.89089 
 H                     1.96134   0.20189   2.79052 
 H                     1.63444  -1.52208   2.45689 
 H                     0.42188  -0.2974    2.02066 
 O                    -2.69153  -1.17792  -2.15434 
 O                     0.9914   -2.34609  -0.71672 
 O                    -1.50474  -2.65023  -0.49961 
 H                    -2.75349  -1.30566  -3.10397 
 H                     1.5853   -3.09977  -0.74069 
 H                    -1.80293  -2.27677   0.38964 
 H                    -2.33944  -0.25911  -1.97437 
 H                    -1.97463  -2.1186   -1.24493 
 H                    -0.48789  -2.56341  -0.57892 
 H                     1.42571  -1.60632  -0.17243 
 O                    -2.22055  -1.5952    1.7344 
 H                    -2.91195  -0.90409   1.6602 
 H                    -2.48772  -2.1673    2.45867 
 O                    -4.13234   0.32188   1.41824 
 H                    -4.27986   1.02296   2.05913 
 H                    -5.00332   0.07882   1.0909 
 
 Add virtual bond connecting atoms H34        and O27        Dist= 2.82D+00.
 Add virtual bond connecting atoms H35        and O28        Dist= 2.84D+00.
 Add virtual bond connecting atoms O37        and H32        Dist= 2.96D+00.
 Add virtual bond connecting atoms H33        and N1         Dist= 3.22D+00.
 Add virtual bond connecting atoms H36        and N11        Dist= 3.14D+00.
 Add virtual bond connecting atoms O40        and H38        Dist= 3.30D+00.

 GradGradGradGradGradGradGradGradGradGradGradGradGradGradGradGradGradGrad
 Berny optimization.
 Initialization pass.
                           ----------------------------
                           !    Initial Parameters    !
                           ! (Angstroms and Degrees)  !
 --------------------------                            --------------------------
 ! Name  Definition              Value          Derivative Info.                !
 --------------------------------------------------------------------------------
 ! R1    R(1,2)                  1.3377         estimate D2E/DX2                !
 ! R2    R(1,6)                  1.3355         estimate D2E/DX2                !
 ! R3    R(1,33)                 1.7064         estimate D2E/DX2                !
 ! R4    R(2,3)                  1.3896         estimate D2E/DX2                !
 ! R5    R(2,13)                 1.0897         estimate D2E/DX2                !
 ! R6    R(3,4)                  1.3929         estimate D2E/DX2                !
 ! R7    R(3,14)                 1.0884         estimate D2E/DX2                !
 ! R8    R(4,5)                  1.3942         estimate D2E/DX2                !
 ! R9    R(4,15)                 1.0907         estimate D2E/DX2                !
 ! R10   R(5,6)                  1.3955         estimate D2E/DX2                !
 ! R11   R(5,7)                  1.509          estimate D2E/DX2                !
 ! R12   R(6,16)                 1.0905         estimate D2E/DX2                !
 ! R13   R(7,8)                  1.5379         estimate D2E/DX2                !
 ! R14   R(7,11)                 1.4768         estimate D2E/DX2                !
 ! R15   R(7,17)                 1.107          estimate D2E/DX2                !
 ! R16   R(8,9)                  1.5478         estimate D2E/DX2                !
 ! R17   R(8,18)                 1.0948         estimate D2E/DX2                !
 ! R18   R(8,19)                 1.0963         estimate D2E/DX2                !
 ! R19   R(9,10)                 1.5353         estimate D2E/DX2                !
 ! R20   R(9,20)                 1.0945         estimate D2E/DX2                !
 ! R21   R(9,21)                 1.0957         estimate D2E/DX2                !
 ! R22   R(10,11)                1.472          estimate D2E/DX2                !
 ! R23   R(10,22)                1.1045         estimate D2E/DX2                !
 ! R24   R(10,23)                1.0974         estimate D2E/DX2                !
 ! R25   R(11,12)                1.4595         estimate D2E/DX2                !
 ! R26   R(11,36)                1.6635         estimate D2E/DX2                !
 ! R27   R(12,24)                1.1041         estimate D2E/DX2                !
 ! R28   R(12,25)                1.0965         estimate D2E/DX2                !
 ! R29   R(12,26)                1.0964         estimate D2E/DX2                !
 ! R30   R(27,30)                0.9602         estimate D2E/DX2                !
 ! R31   R(27,33)                1.0003         estimate D2E/DX2                !
 ! R32   R(27,34)                1.4919         estimate D2E/DX2                !
 ! R33   R(28,31)                0.9599         estimate D2E/DX2                !
 ! R34   R(28,35)                1.5015         estimate D2E/DX2                !
 ! R35   R(28,36)                1.0159         estimate D2E/DX2                !
 ! R36   R(29,32)                1.0095         estimate D2E/DX2                !
 ! R37   R(29,34)                1.029          estimate D2E/DX2                !
 ! R38   R(29,35)                1.0236         estimate D2E/DX2                !
 ! R39   R(32,37)                1.5644         estimate D2E/DX2                !
 ! R40   R(37,38)                0.9804         estimate D2E/DX2                !
 ! R41   R(37,39)                0.9609         estimate D2E/DX2                !
 ! R42   R(38,40)                1.7467         estimate D2E/DX2                !
 ! R43   R(40,41)                0.9613         estimate D2E/DX2                !
 ! R44   R(40,42)                0.9617         estimate D2E/DX2                !
 ! A1    A(2,1,6)              118.482          estimate D2E/DX2                !
 ! A2    A(2,1,33)             128.1891         estimate D2E/DX2                !
 ! A3    A(6,1,33)             111.9111         estimate D2E/DX2                !
 ! A4    A(1,2,3)              122.385          estimate D2E/DX2                !
 ! A5    A(1,2,13)             116.4125         estimate D2E/DX2                !
 ! A6    A(3,2,13)             121.2025         estimate D2E/DX2                !
 ! A7    A(2,3,4)              118.6008         estimate D2E/DX2                !
 ! A8    A(2,3,14)             120.2621         estimate D2E/DX2                !
 ! A9    A(4,3,14)             121.1365         estimate D2E/DX2                !
 ! A10   A(3,4,5)              119.7194         estimate D2E/DX2                !
 ! A11   A(3,4,15)             120.2069         estimate D2E/DX2                !
 ! A12   A(5,4,15)             120.0734         estimate D2E/DX2                !
 ! A13   A(4,5,6)              117.0186         estimate D2E/DX2                !
 ! A14   A(4,5,7)              121.6396         estimate D2E/DX2                !
 ! A15   A(6,5,7)              121.3416         estimate D2E/DX2                !
 ! A16   A(1,6,5)              123.7741         estimate D2E/DX2                !
 ! A17   A(1,6,16)             115.7308         estimate D2E/DX2                !
 ! A18   A(5,6,16)             120.4951         estimate D2E/DX2                !
 ! A19   A(5,7,8)              115.6619         estimate D2E/DX2                !
 ! A20   A(5,7,11)             113.2761         estimate D2E/DX2                !
 ! A21   A(5,7,17)             107.6283         estimate D2E/DX2                !
 ! A22   A(8,7,11)             102.9897         estimate D2E/DX2                !
 ! A23   A(8,7,17)             108.8251         estimate D2E/DX2                !
 ! A24   A(11,7,17)            108.1818         estimate D2E/DX2                !
 ! A25   A(7,8,9)              104.3668         estimate D2E/DX2                !
 ! A26   A(7,8,18)             110.8885         estimate D2E/DX2                !
 ! A27   A(7,8,19)             110.1056         estimate D2E/DX2                !
 ! A28   A(9,8,18)             113.1388         estimate D2E/DX2                !
 ! A29   A(9,8,19)             110.9944         estimate D2E/DX2                !
 ! A30   A(18,8,19)            107.3672         estimate D2E/DX2                !
 ! A31   A(8,9,10)             104.4688         estimate D2E/DX2                !
 ! A32   A(8,9,20)             112.3568         estimate D2E/DX2                !
 ! A33   A(8,9,21)             110.6442         estimate D2E/DX2                !
 ! A34   A(10,9,20)            111.0773         estimate D2E/DX2                !
 ! A35   A(10,9,21)            110.9839         estimate D2E/DX2                !
 ! A36   A(20,9,21)            107.3648         estimate D2E/DX2                !
 ! A37   A(9,10,11)            104.1479         estimate D2E/DX2                !
 ! A38   A(9,10,22)            110.9519         estimate D2E/DX2                !
 ! A39   A(9,10,23)            113.9312         estimate D2E/DX2                !
 ! A40   A(11,10,22)           109.8855         estimate D2E/DX2                !
 ! A41   A(11,10,23)           110.2419         estimate D2E/DX2                !
 ! A42   A(22,10,23)           107.6516         estimate D2E/DX2                !
 ! A43   A(7,11,10)            103.4412         estimate D2E/DX2                !
 ! A44   A(7,11,12)            113.5916         estimate D2E/DX2                !
 ! A45   A(7,11,36)            115.8794         estimate D2E/DX2                !
 ! A46   A(10,11,12)           113.3298         estimate D2E/DX2                !
 ! A47   A(10,11,36)           103.6918         estimate D2E/DX2                !
 ! A48   A(12,11,36)           106.6345         estimate D2E/DX2                !
 ! A49   A(11,12,24)           111.5944         estimate D2E/DX2                !
 ! A50   A(11,12,25)           109.3797         estimate D2E/DX2                !
 ! A51   A(11,12,26)           109.8944         estimate D2E/DX2                !
 ! A52   A(24,12,25)           108.5126         estimate D2E/DX2                !
 ! A53   A(24,12,26)           109.0622         estimate D2E/DX2                !
 ! A54   A(25,12,26)           108.328          estimate D2E/DX2                !
 ! A55   A(30,27,33)           108.8363         estimate D2E/DX2                !
 ! A56   A(30,27,34)           123.3653         estimate D2E/DX2                !
 ! A57   A(33,27,34)           107.4785         estimate D2E/DX2                !
 ! A58   A(31,28,35)           119.883          estimate D2E/DX2                !
 ! A59   A(31,28,36)           108.701          estimate D2E/DX2                !
 ! A60   A(35,28,36)           118.5149         estimate D2E/DX2                !
 ! A61   A(32,29,34)           108.1796         estimate D2E/DX2                !
 ! A62   A(32,29,35)           109.2865         estimate D2E/DX2                !
 ! A63   A(34,29,35)           110.7119         estimate D2E/DX2                !
 ! A64   A(1,33,27)            160.4925         estimate D2E/DX2                !
 ! A65   A(32,37,38)           115.4883         estimate D2E/DX2                !
 ! A66   A(32,37,39)           117.5661         estimate D2E/DX2                !
 ! A67   A(38,37,39)           106.3003         estimate D2E/DX2                !
 ! A68   A(38,40,41)           121.788          estimate D2E/DX2                !
 ! A69   A(38,40,42)           120.1687         estimate D2E/DX2                !
 ! A70   A(41,40,42)           105.8002         estimate D2E/DX2                !
 ! A71   L(29,32,37,1,-1)      175.9506         estimate D2E/DX2                !
 ! A72   L(27,34,29,3,-1)      171.8563         estimate D2E/DX2                !
 ! A73   L(28,35,29,1,-1)      176.4425         estimate D2E/DX2                !
 ! A74   L(11,36,28,1,-1)      179.2415         estimate D2E/DX2                !
 ! A75   L(37,38,40,1,-1)      177.1273         estimate D2E/DX2                !
 ! A76   L(29,32,37,1,-2)      181.3935         estimate D2E/DX2                !
 ! A77   L(27,34,29,3,-2)      175.1125         estimate D2E/DX2                !
 ! A78   L(28,35,29,1,-2)      179.8445         estimate D2E/DX2                !
 ! A79   L(11,36,28,1,-2)      181.6504         estimate D2E/DX2                !
 ! A80   L(37,38,40,1,-2)      177.7546         estimate D2E/DX2                !
 ! D1    D(6,1,2,3)             -0.1601         estimate D2E/DX2                !
 ! D2    D(6,1,2,13)           179.8956         estimate D2E/DX2                !
 ! D3    D(33,1,2,3)           165.0658         estimate D2E/DX2                !
 ! D4    D(33,1,2,13)          -14.8785         estimate D2E/DX2                !
 ! D5    D(2,1,6,5)              1.302          estimate D2E/DX2                !
 ! D6    D(2,1,6,16)          -178.7605         estimate D2E/DX2                !
 ! D7    D(33,1,6,5)          -166.2217         estimate D2E/DX2                !
 ! D8    D(33,1,6,16)           13.7159         estimate D2E/DX2                !
 ! D9    D(2,1,33,27)         -120.4554         estimate D2E/DX2                !
 ! D10   D(6,1,33,27)           45.5639         estimate D2E/DX2                !
 ! D11   D(1,2,3,4)             -1.0243         estimate D2E/DX2                !
 ! D12   D(1,2,3,14)           179.2585         estimate D2E/DX2                !
 ! D13   D(13,2,3,4)           178.9174         estimate D2E/DX2                !
 ! D14   D(13,2,3,14)           -0.7999         estimate D2E/DX2                !
 ! D15   D(2,3,4,5)              1.1097         estimate D2E/DX2                !
 ! D16   D(2,3,4,15)          -179.0778         estimate D2E/DX2                !
 ! D17   D(14,3,4,5)          -179.1757         estimate D2E/DX2                !
 ! D18   D(14,3,4,15)            0.6369         estimate D2E/DX2                !
 ! D19   D(3,4,5,6)             -0.0792         estimate D2E/DX2                !
 ! D20   D(3,4,5,7)            179.7467         estimate D2E/DX2                !
 ! D21   D(15,4,5,6)          -179.892          estimate D2E/DX2                !
 ! D22   D(15,4,5,7)            -0.0661         estimate D2E/DX2                !
 ! D23   D(4,5,6,1)             -1.1749         estimate D2E/DX2                !
 ! D24   D(4,5,6,16)           178.8904         estimate D2E/DX2                !
 ! D25   D(7,5,6,1)            178.9987         estimate D2E/DX2                !
 ! D26   D(7,5,6,16)            -0.936          estimate D2E/DX2                !
 ! D27   D(4,5,7,8)           -118.0307         estimate D2E/DX2                !
 ! D28   D(4,5,7,11)           123.4051         estimate D2E/DX2                !
 ! D29   D(4,5,7,17)             3.8599         estimate D2E/DX2                !
 ! D30   D(6,5,7,8)             61.7876         estimate D2E/DX2                !
 ! D31   D(6,5,7,11)           -56.7766         estimate D2E/DX2                !
 ! D32   D(6,5,7,17)          -176.3218         estimate D2E/DX2                !
 ! D33   D(5,7,8,9)           -153.2242         estimate D2E/DX2                !
 ! D34   D(5,7,8,18)            84.6397         estimate D2E/DX2                !
 ! D35   D(5,7,8,19)           -34.0408         estimate D2E/DX2                !
 ! D36   D(11,7,8,9)           -29.1167         estimate D2E/DX2                !
 ! D37   D(11,7,8,18)         -151.2528         estimate D2E/DX2                !
 ! D38   D(11,7,8,19)           90.0666         estimate D2E/DX2                !
 ! D39   D(17,7,8,9)            85.5266         estimate D2E/DX2                !
 ! D40   D(17,7,8,18)          -36.6095         estimate D2E/DX2                !
 ! D41   D(17,7,8,19)         -155.2901         estimate D2E/DX2                !
 ! D42   D(5,7,11,10)          170.5457         estimate D2E/DX2                !
 ! D43   D(5,7,11,12)          -66.1776         estimate D2E/DX2                !
 ! D44   D(5,7,11,36)           57.8129         estimate D2E/DX2                !
 ! D45   D(8,7,11,10)           44.8809         estimate D2E/DX2                !
 ! D46   D(8,7,11,12)          168.1576         estimate D2E/DX2                !
 ! D47   D(8,7,11,36)          -67.8519         estimate D2E/DX2                !
 ! D48   D(17,7,11,10)         -70.2267         estimate D2E/DX2                !
 ! D49   D(17,7,11,12)          53.05           estimate D2E/DX2                !
 ! D50   D(17,7,11,36)         177.0405         estimate D2E/DX2                !
 ! D51   D(7,8,9,10)             3.5017         estimate D2E/DX2                !
 ! D52   D(7,8,9,20)          -117.0104         estimate D2E/DX2                !
 ! D53   D(7,8,9,21)           123.0021         estimate D2E/DX2                !
 ! D54   D(18,8,9,10)          124.1467         estimate D2E/DX2                !
 ! D55   D(18,8,9,20)            3.6345         estimate D2E/DX2                !
 ! D56   D(18,8,9,21)         -116.3529         estimate D2E/DX2                !
 ! D57   D(19,8,9,10)         -115.0775         estimate D2E/DX2                !
 ! D58   D(19,8,9,20)          124.4103         estimate D2E/DX2                !
 ! D59   D(19,8,9,21)            4.4228         estimate D2E/DX2                !
 ! D60   D(8,9,10,11)           23.5021         estimate D2E/DX2                !
 ! D61   D(8,9,10,22)          -94.671          estimate D2E/DX2                !
 ! D62   D(8,9,10,23)          143.6498         estimate D2E/DX2                !
 ! D63   D(20,9,10,11)         144.8645         estimate D2E/DX2                !
 ! D64   D(20,9,10,22)          26.6914         estimate D2E/DX2                !
 ! D65   D(20,9,10,23)         -94.9878         estimate D2E/DX2                !
 ! D66   D(21,9,10,11)         -95.769          estimate D2E/DX2                !
 ! D67   D(21,9,10,22)         146.058          estimate D2E/DX2                !
 ! D68   D(21,9,10,23)          24.3788         estimate D2E/DX2                !
 ! D69   D(9,10,11,7)          -42.8386         estimate D2E/DX2                !
 ! D70   D(9,10,11,12)        -166.2878         estimate D2E/DX2                !
 ! D71   D(9,10,11,36)          78.5017         estimate D2E/DX2                !
 ! D72   D(22,10,11,7)          76.0645         estimate D2E/DX2                !
 ! D73   D(22,10,11,12)        -47.3848         estimate D2E/DX2                !
 ! D74   D(22,10,11,36)       -162.5952         estimate D2E/DX2                !
 ! D75   D(23,10,11,7)        -165.4417         estimate D2E/DX2                !
 ! D76   D(23,10,11,12)         71.109          estimate D2E/DX2                !
 ! D77   D(23,10,11,36)        -44.1014         estimate D2E/DX2                !
 ! D78   D(7,11,12,24)         -56.9685         estimate D2E/DX2                !
 ! D79   D(7,11,12,25)        -177.0494         estimate D2E/DX2                !
 ! D80   D(7,11,12,26)          64.148          estimate D2E/DX2                !
 ! D81   D(10,11,12,24)         60.7145         estimate D2E/DX2                !
 ! D82   D(10,11,12,25)        -59.3664         estimate D2E/DX2                !
 ! D83   D(10,11,12,26)       -178.1691         estimate D2E/DX2                !
 ! D84   D(36,11,12,24)        174.1608         estimate D2E/DX2                !
 ! D85   D(36,11,12,25)         54.0799         estimate D2E/DX2                !
 ! D86   D(36,11,12,26)        -64.7228         estimate D2E/DX2                !
 ! D87   D(7,11,28,31)         134.8443         estimate D2E/DX2                !
 ! D88   D(7,11,28,35)         -84.1765         estimate D2E/DX2                !
 ! D89   D(10,11,28,31)         21.8303         estimate D2E/DX2                !
 ! D90   D(10,11,28,35)        162.8095         estimate D2E/DX2                !
 ! D91   D(12,11,28,31)        -98.0362         estimate D2E/DX2                !
 ! D92   D(12,11,28,35)         42.9429         estimate D2E/DX2                !
 ! D93   D(30,27,29,32)       -170.4705         estimate D2E/DX2                !
 ! D94   D(30,27,29,35)         72.4297         estimate D2E/DX2                !
 ! D95   D(33,27,29,32)         61.4188         estimate D2E/DX2                !
 ! D96   D(33,27,29,35)        -55.681          estimate D2E/DX2                !
 ! D97   D(30,27,33,1)        -143.6824         estimate D2E/DX2                !
 ! D98   D(34,27,33,1)          -7.9045         estimate D2E/DX2                !
 ! D99   D(31,28,29,32)        113.8752         estimate D2E/DX2                !
 ! D100  D(31,28,29,34)       -128.2767         estimate D2E/DX2                !
 ! D101  D(36,28,29,32)        -24.0688         estimate D2E/DX2                !
 ! D102  D(36,28,29,34)         93.7793         estimate D2E/DX2                !
 ! D103  D(34,29,37,38)          6.6769         estimate D2E/DX2                !
 ! D104  D(34,29,37,39)        134.4547         estimate D2E/DX2                !
 ! D105  D(35,29,37,38)        125.8225         estimate D2E/DX2                !
 ! D106  D(35,29,37,39)       -106.3997         estimate D2E/DX2                !
 ! D107  D(32,37,40,41)       -158.4689         estimate D2E/DX2                !
 ! D108  D(32,37,40,42)         63.4353         estimate D2E/DX2                !
 ! D109  D(39,37,40,41)         69.4551         estimate D2E/DX2                !
 ! D110  D(39,37,40,42)        -68.6406         estimate D2E/DX2                !
 --------------------------------------------------------------------------------
 Trust Radius=1.00D-02 FncErr=1.00D-07 GrdErr=1.00D-06 EigMax=2.50D+02 EigMin=1.00D-04
 Number of steps in this run=    244 maximum allowed number of steps=    252.
 GradGradGradGradGradGradGradGradGradGradGradGradGradGradGradGradGradGrad

                          Input orientation:                          
 ---------------------------------------------------------------------
 Center     Atomic      Atomic             Coordinates (Angstroms)
 Number     Number       Type             X           Y           Z
 ---------------------------------------------------------------------
      1          7           0       -1.481690    1.019038   -1.237801
      2          6           0       -1.970698    2.144557   -0.705424
      3          6           0       -1.216659    2.963178    0.126585
      4          6           0        0.088314    2.583305    0.431287
      5          6           0        0.613856    1.414349   -0.117368
      6          6           0       -0.221353    0.677306   -0.957905
      7          6           0        2.023583    0.965056    0.178846
      8          6           0        2.964180    0.879459   -1.034810
      9          6           0        4.008911   -0.190841   -0.636304
     10          6           0        3.535003   -0.698341    0.733036
     11          7           0        2.094731   -0.394746    0.750512
     12          6           0        1.497419   -0.502358    2.077819
     13          1           0       -3.001626    2.391922   -0.957368
     14          1           0       -1.645602    3.877978    0.531379
     15          1           0        0.698459    3.198550    1.093757
     16          1           0        0.137784   -0.236760   -1.432020
     17          1           0        2.453138    1.671955    0.914527
     18          1           0        3.409786    1.855362   -1.252899
     19          1           0        2.403920    0.569304   -1.924685
     20          1           0        5.022041    0.218766   -0.575196
     21          1           0        4.028581   -1.003759   -1.370724
     22          1           0        4.042763   -0.158197    1.551777
     23          1           0        3.698665   -1.771881    0.890894
     24          1           0        1.961343    0.201892    2.790521
     25          1           0        1.634439   -1.522080    2.456886
     26          1           0        0.421876   -0.297403    2.020663
     27          8           0       -2.691529   -1.177918   -2.154339
     28          8           0        0.991403   -2.346091   -0.716719
     29          8           0       -1.504736   -2.650229   -0.499613
     30          1           0       -2.753494   -1.305664   -3.103967
     31          1           0        1.585302   -3.099772   -0.740688
     32          1           0       -1.802926   -2.276773    0.389637
     33          1           0       -2.339439   -0.259108   -1.974367
     34          1           0       -1.974627   -2.118597   -1.244934
     35          1           0       -0.487889   -2.563409   -0.578924
     36          1           0        1.425707   -1.606321   -0.172425
     37          8           0       -2.220547   -1.595198    1.734397
     38          1           0       -2.911948   -0.904094    1.660196
     39          1           0       -2.487722   -2.167299    2.458671
     40          8           0       -4.132338    0.321878    1.418237
     41          1           0       -4.279856    1.022961    2.059127
     42          1           0       -5.003317    0.078821    1.090899
 ---------------------------------------------------------------------
                    Distance matrix (angstroms):
                    1          2          3          4          5
     1  N    0.000000
     2  C    1.337665   0.000000
     3  C    2.389868   1.389588   0.000000
     4  C    2.774473   2.392518   1.392875   0.000000
     5  C    2.408932   2.749351   2.410222   1.394157   0.000000
     6  C    1.335504   2.297124   2.718817   2.378777   1.395460
     7  C    3.781103   4.257633   3.807150   2.535295   1.508952
     8  C    4.452690   5.105094   4.813537   3.650087   2.579114
     9  C    5.654406   6.419859   6.151131   4.920032   3.791085
    10  C    5.656925   6.361130   6.029328   4.768639   3.704018
    11  N    4.329314   5.009543   4.757125   3.605052   2.493799
    12  C    4.709891   5.174982   4.814922   3.770671   3.045209
    13  H    2.067283   1.089715   2.165039   3.393040   3.838354
    14  H    3.366066   2.154093   1.088444   2.166255   3.405215
    15  H    3.865163   3.387086   2.158356   1.090720   2.158091
    16  H    2.058506   3.262562   3.808329   3.380403   2.163589
    17  H    4.532294   4.734756   3.969322   2.580014   2.124647
    18  H    4.962480   5.415992   4.953204   3.794543   3.049778
    19  H    3.971402   4.806797   4.800722   3.868958   2.680452
    20  H    6.586198   7.254242   6.851691   5.562887   4.590329
    21  H    5.871325   6.807780   6.744707   5.624942   4.367894
    22  H    6.299778   6.823441   6.279783   4.940546   4.125088
    23  H    6.257527   7.073075   6.867704   5.675695   4.548044
    24  H    5.361864   5.608612   4.982063   3.839968   3.426601
    25  H    5.460609   6.036675   5.803154   4.831950   4.036210
    26  H    3.996770   4.372543   4.111413   3.306941   2.745565
    27  O    2.670275   3.695645   4.952427   5.344136   4.668476
    28  O    4.208540   5.379599   5.811629   5.141248   3.826574
    29  O    3.742856   4.821769   5.655568   5.549258   4.599493
    30  H    3.241034   4.274319   5.569680   5.974778   5.259020
    31  H    5.159279   6.336353   6.735170   5.992651   4.659348
    32  H    3.689731   4.558011   5.279204   5.215255   4.440976
    33  H    1.706435   2.742953   4.007214   4.445275   3.869219
    34  H    3.176128   4.297158   5.317896   5.401234   4.522539
    35  H    3.775670   4.937577   5.618898   5.276476   4.153244
    36  H    4.059617   5.088098   5.286949   4.439150   3.128351
    37  O    4.026674   4.472239   4.936764   4.948618   4.529928
    38  H    3.760646   3.971949   4.492411   4.761695   4.578887
    39  H    4.982845   5.373166   5.777198   5.771870   5.392955
    40  O    3.816609   3.536210   4.140775   4.888970   5.106656
    41  H    4.324290   3.772656   4.108812   4.915836   5.370171
    42  H    4.325356   4.085440   4.856768   5.712463   5.898828
                    6          7          8          9         10
     6  C    0.000000
     7  C    2.532734   0.000000
     8  C    3.192867   1.537859   0.000000
     9  C    4.330386   2.437641   1.547841   0.000000
    10  C    4.343028   2.314823   2.437329   1.535330   0.000000
    11  N    3.071193   1.476796   2.359431   2.372535   1.472025
    12  C    3.682581   2.456878   3.708000   3.710943   2.449204
    13  H    3.266470   5.345994   6.155029   7.478060   7.425275
    14  H    3.806672   4.698118   5.717880   7.063447   6.915347
    15  H    3.378171   2.753454   3.878463   5.043825   4.833411
    16  H    1.090542   2.755991   3.064675   3.952328   4.054827
    17  H    3.412950   1.107001   2.165440   2.880194   2.611833
    18  H    3.828839   2.182681   1.094767   2.219479   3.237440
    19  H    2.799712   2.173964   1.096342   2.194024   3.154323
    20  H    5.277301   3.180610   2.209650   1.094507   2.182622
    21  H    4.588936   3.208959   2.189132   1.095717   2.182362
    22  H    5.017893   2.687699   2.988395   2.188586   1.104497
    23  H    4.978264   3.286904   3.358185   2.219972   1.097357
    24  H    4.363585   2.721606   4.012223   4.011222   2.742275
    25  H    4.465653   3.395106   4.441570   4.120454   2.694874
    26  H    3.199323   2.748010   4.145386   4.465159   3.392682
    27  O    3.312866   5.680526   6.121535   6.940796   6.880162
    28  O    3.266478   3.582056   3.794365   3.709033   3.359579
    29  O    3.595774   5.097021   5.719820   6.038839   5.543308
    30  H    3.866457   6.225231   6.461267   7.284388   7.391659
    31  H    4.192553   4.190520   4.221622   3.787698   3.426378
    32  H    3.611624   5.019568   5.892041   6.259482   5.576993
    33  H    2.529102   5.017057   5.505223   6.488191   6.483211
    34  H    3.312617   5.246117   5.781376   6.315806   6.023746
    35  H    3.273668   4.396791   4.896729   5.084642   4.624216
    36  H    2.923138   2.663236   3.047902   2.981897   2.468485
    37  O    4.050869   5.194928   6.377604   6.811651   5.910451
    38  H    4.073645   5.481568   6.706191   7.326727   6.516528
    39  H    4.990110   5.946522   7.156143   7.462674   6.434972
    40  O    4.590009   6.312300   7.529203   8.412131   7.765209
    41  H    5.068866   6.578157   7.878394   8.800132   8.111314
    42  H    5.236694   7.141049   8.284966   9.180207   8.581081
                   11         12         13         14         15
    11  N    0.000000
    12  C    1.459488   0.000000
    13  H    6.054356   6.150660   0.000000
    14  H    5.682806   5.608690   2.502705   0.000000
    15  H    3.870293   3.911961   4.306784   2.504499   0.000000
    16  H    2.935651   3.773343   4.122033   4.895556   4.300612
    17  H    2.103951   2.644671   5.811781   4.670440   2.332705
    18  H    3.287250   4.506626   6.440609   5.729884   3.829131
    19  H    2.860362   4.241491   5.785980   5.777387   4.351152
    20  H    3.271550   4.470064   8.321532   7.685818   5.509798
    21  H    2.934334   4.307045   7.818269   7.723063   5.901083
    22  H    2.119625   2.621821   7.900780   7.049072   4.760452
    23  H    2.118682   2.804633   8.102298   7.785329   5.809266
    24  H    2.129649   1.104146   6.593479   5.623823   3.667948
    25  H    2.096297   1.096494   6.962014   6.605064   5.001852
    26  H    2.102666   1.096388   5.274609   4.891445   3.627305
    27  O    5.653300   5.992898   3.777917   5.819719   6.418381
    28  O    2.679150   3.385978   6.200884   6.873906   5.840093
    29  O    4.427886   4.502160   5.279537   6.610618   6.449892
    30  H    6.260357   6.750294   4.282709   6.427543   7.058669
    31  H    3.130553   3.833832   7.158601   7.793965   6.619708
    32  H    4.343269   4.109840   5.004799   6.158393   6.060683
    33  H    5.206268   5.585773   2.915603   4.886272   5.531510
    34  H    4.849035   5.070308   4.634890   6.262783   6.394288
    35  H    3.624972   3.904826   5.569327   6.638113   6.116000
    36  H    1.663526   2.507484   6.016923   6.325015   5.021841
    37  O    4.585928   3.890438   4.873685   5.633247   5.648985
    38  H    5.114078   4.447282   4.209917   5.074059   5.494322
    39  H    5.201791   4.335715   5.720133   6.400703   6.388042
    40  O    6.303633   5.727877   3.347699   4.429020   5.631796
    41  H    6.660160   5.975270   3.550657   4.174258   5.518038
    42  H    7.121967   6.600860   3.681386   5.101069   6.499459
                   16         17         18         19         20
    16  H    0.000000
    17  H    3.809244   0.000000
    18  H    3.887809   2.376247   0.000000
    19  H    2.455164   3.046209   1.765505   0.000000
    20  H    4.979721   3.306100   2.395223   2.966236   0.000000
    21  H    3.966150   3.855365   2.927689   2.328288   1.764765
    22  H    4.915087   2.506482   3.510169   3.911630   2.371729
    23  H    4.520221   3.662226   4.223292   3.883941   2.804179
    24  H    4.620350   2.433578   4.602303   4.750161   4.549309
    25  H    4.360690   3.640192   5.321793   4.915705   4.868256
    26  H    3.464882   3.037751   4.927293   4.499494   5.307206
    27  O    3.067986   6.633801   6.873094   5.391579   7.996473
    28  O    2.385288   4.576279   4.877322   3.457443   4.779599
    29  O    3.064651   6.028751   6.709718   5.260591   7.129913
    30  H    3.506772   7.219662   7.169697   5.612943   8.317302
    31  H    3.281781   5.124671   5.305135   3.941333   4.780299
    32  H    3.353572   5.829412   6.851630   5.581558   7.330675
    33  H    2.535996   5.919756   6.168070   4.815412   7.508491
    34  H    2.835241   6.215839   6.692109   5.182523   7.407103
    35  H    2.555882   5.368272   5.930569   4.470741   6.172507
    36  H    2.262968   3.603356   4.133672   2.959841   4.052997
    37  O    4.175317   5.761060   7.247824   6.281691   7.815355
    38  H    4.394087   5.998016   7.487659   6.578809   8.319013
    39  H    5.075208   6.444870   8.046002   7.115544   8.443589
    40  O    5.164299   6.741285   8.146789   7.345680   9.369475
    41  H    5.769796   6.860358   8.413858   7.794192   9.701117
    42  H    5.735471   7.626789   8.912339   8.012583  10.163821
                   21         22         23         24         25
    21  H    0.000000
    22  H    3.042398   0.000000
    23  H    2.411176   1.777399   0.000000
    24  H    4.800315   2.448767   3.243863   0.000000
    25  H    4.544356   2.911945   2.603029   1.786129   0.000000
    26  H    5.000876   3.653773   3.766671   1.792187   1.777761
    27  O    6.767885   7.754084   7.103578   6.928545   6.332128
    28  O    3.384380   4.386770   3.200532   4.442267   3.341296
    29  O    5.838433   6.418191   5.457141   5.565364   4.457356
    30  H    7.006555   8.317556   7.603067   7.697233   7.086881
    31  H    3.280218   4.466248   2.981888   4.848900   3.565951
    32  H    6.223014   6.325426   5.547403   5.106637   4.081490
    33  H    6.439765   7.292213   6.852511   6.435325   6.084637
    34  H    6.107143   6.919085   6.071920   6.096017   5.204293
    35  H    4.843341   5.554434   4.507118   4.999879   3.847699
    36  H    2.928132   3.452379   2.514835   3.512206   2.638928
    37  O    7.003083   6.428637   5.981621   4.672594   3.922786
    38  H    7.574124   6.995436   6.711563   5.123456   4.656850
    39  H    7.647241   6.892473   6.394190   5.051472   4.172352
    40  O    8.725607   8.190274   8.123209   6.247440   6.142857
    41  H    9.214206   8.421314   8.534208   6.337322   6.450917
    42  H    9.423733   9.060913   8.898853   7.170101   6.963376
                   26         27         28         29         30
    26  H    0.000000
    27  O    5.281973   0.000000
    28  O    3.466229   4.122544   0.000000
    29  O    3.949609   2.512826   2.523954   0.000000
    30  H    6.112397   0.960183   4.561326   3.185893   0.000000
    31  H    4.102669   4.897266   0.959857   3.131859   5.256335
    32  H    3.395275   2.910139   3.006177   1.009531   3.748587
    33  H    4.856603   1.000285   4.126946   2.930715   1.594590
    34  H    4.441182   1.491926   3.021274   1.029045   2.173361
    35  H    3.566554   3.042622   1.501506   1.023624   3.618111
    36  H    2.744190   4.589460   1.015941   3.127985   5.113712
    37  O    2.957807   3.939316   4.109554   2.572212   4.876231
    38  H    3.407696   3.830697   4.792205   3.113520   4.783682
    39  H    3.486276   4.722317   4.713744   3.154509   5.635245
    40  O    4.635439   4.133838   6.158638   4.406343   5.000043
    41  H    4.883761   5.011980   6.844122   5.266950   5.865988
    42  H    5.517130   4.177957   6.714488   4.713546   4.957358
                   31         32         33         34         35
    31  H    0.000000
    32  H    3.665386   0.000000
    33  H    4.999493   3.153939   0.000000
    34  H    3.726937   1.651158   2.030483   0.000000
    35  H    2.147551   1.658190   3.268838   1.688732   0.000000
    36  H    1.605861   3.345070   4.386149   3.602079   2.177868
    37  O    4.782706   1.564395   3.943882   3.034936   3.048113
    38  H    5.550721   2.174511   3.735481   3.285326   3.693650
    39  H    5.262597   2.182162   4.828562   3.739295   3.658308
    40  O    7.004288   3.638292   3.880953   4.207626   5.059204
    41  H    7.696491   4.450913   4.655963   5.108844   5.848109
    42  H    7.541092   4.035232   4.075083   4.411091   5.491701
                   36         37         38         39         40
    36  H    0.000000
    37  O    4.114761   0.000000
    38  H    4.760974   0.980391   0.000000
    39  H    4.748925   0.960862   1.553453   0.000000
    40  O    6.094261   2.725818   1.746684   3.159631   0.000000
    41  H    6.666813   3.346783   2.396635   3.680915   0.961259
    42  H    6.765208   3.310625   2.379925   3.639241   0.961681
                   41         42
    41  H    0.000000
    42  H    1.533708   0.000000
 Stoichiometry    C10H25N2O5(1+)
 Framework group  C1[X(C10H25N2O5)]
 Deg. of freedom   120
 Full point group                 C1      NOp   1
 Largest Abelian subgroup         C1      NOp   1
 Largest concise Abelian subgroup C1      NOp   1
                         Standard orientation:                         
 ---------------------------------------------------------------------
 Center     Atomic      Atomic             Coordinates (Angstroms)
 Number     Number       Type             X           Y           Z
 ---------------------------------------------------------------------
      1          7           0       -1.481690    1.019038   -1.237801
      2          6           0       -1.970698    2.144557   -0.705424
      3          6           0       -1.216659    2.963178    0.126585
      4          6           0        0.088314    2.583305    0.431287
      5          6           0        0.613856    1.414349   -0.117368
      6          6           0       -0.221353    0.677306   -0.957905
      7          6           0        2.023583    0.965056    0.178846
      8          6           0        2.964180    0.879459   -1.034810
      9          6           0        4.008911   -0.190841   -0.636304
     10          6           0        3.535003   -0.698341    0.733036
     11          7           0        2.094731   -0.394746    0.750512
     12          6           0        1.497419   -0.502358    2.077819
     13          1           0       -3.001626    2.391922   -0.957368
     14          1           0       -1.645602    3.877978    0.531379
     15          1           0        0.698459    3.198550    1.093757
     16          1           0        0.137784   -0.236760   -1.432020
     17          1           0        2.453138    1.671955    0.914527
     18          1           0        3.409786    1.855362   -1.252899
     19          1           0        2.403920    0.569304   -1.924685
     20          1           0        5.022041    0.218766   -0.575196
     21          1           0        4.028581   -1.003759   -1.370724
     22          1           0        4.042763   -0.158197    1.551777
     23          1           0        3.698665   -1.771881    0.890894
     24          1           0        1.961343    0.201892    2.790521
     25          1           0        1.634439   -1.522080    2.456886
     26          1           0        0.421876   -0.297403    2.020663
     27          8           0       -2.691529   -1.177918   -2.154339
     28          8           0        0.991403   -2.346091   -0.716719
     29          8           0       -1.504736   -2.650229   -0.499613
     30          1           0       -2.753494   -1.305664   -3.103967
     31          1           0        1.585302   -3.099772   -0.740688
     32          1           0       -1.802926   -2.276773    0.389637
     33          1           0       -2.339439   -0.259108   -1.974367
     34          1           0       -1.974627   -2.118597   -1.244934
     35          1           0       -0.487889   -2.563409   -0.578924
     36          1           0        1.425707   -1.606321   -0.172425
     37          8           0       -2.220547   -1.595198    1.734397
     38          1           0       -2.911948   -0.904094    1.660196
     39          1           0       -2.487722   -2.167299    2.458671
     40          8           0       -4.132338    0.321878    1.418237
     41          1           0       -4.279856    1.022961    2.059127
     42          1           0       -5.003317    0.078822    1.090899
 ---------------------------------------------------------------------
 Rotational constants (GHZ):           0.4955894           0.2870160           0.2444623
 Standard basis: Aug-CC-pVDZ (5D, 7F)
 There are   650 symmetry adapted cartesian basis functions of A   symmetry.
 There are   616 symmetry adapted basis functions of A   symmetry.
   616 basis functions,  1006 primitive gaussians,   650 cartesian basis functions
    69 alpha electrons       69 beta electrons
       nuclear repulsion energy      1411.0766824131 Hartrees.
 NAtoms=   42 NActive=   42 NUniq=   42 SFac= 1.00D+00 NAtFMM=   60 NAOKFM=F Big=F
 Integral buffers will be    131072 words long.
 Raffenetti 2 integral format.
 Two-electron integral symmetry is turned on.
 Nuclear repulsion after empirical dispersion term =     1411.0429700539 Hartrees.
 One-electron integrals computed using PRISM.
 NBasis=   616 RedAO= T EigKep=  1.75D-06  NBF=   616
 NBsUse=   616 1.00D-06 EigRej= -1.00D+00 NBFU=   616
 ExpMin= 2.97D-02 ExpMax= 1.17D+04 ExpMxC= 4.01D+02 IAcc=3 IRadAn=         5 AccDes= 0.00D+00
 Harris functional with IExCor= 4639 and IRadAn=       5 diagonalized for initial guess.
 HarFok:  IExCor= 4639 AccDes= 0.00D+00 IRadAn=         5 IDoV= 1 UseB2=F ITyADJ=14
 ICtDFT=  3500011 ScaDFX=  1.000000  1.000000  1.000000  1.000000
 FoFCou: FMM=F IPFlag=           0 FMFlag=      100000 FMFlg1=           0
         NFxFlg=           0 DoJE=T BraDBF=F KetDBF=T FulRan=T
         wScrn=  0.000000 ICntrl=       500 IOpCl=  0 I1Cent=   200000004 NGrid=           0
         NMat0=    1 NMatS0=      1 NMatT0=    0 NMatD0=    1 NMtDS0=    0 NMtDT0=    0
 Petite list used in FoFCou.
 Requested convergence on RMS density matrix=1.00D-08 within 128 cycles.
 Requested convergence on MAX density matrix=1.00D-06.
 Requested convergence on             energy=1.00D-06.
 No special actions if energy rises.
 SCF Done:  E(RwB97XD) =  -881.460089682     A.U. after   16 cycles
            NFock= 16  Conv=0.19D-08     -V/T= 2.0062

 **********************************************************************

            Population analysis using the SCF density.

 **********************************************************************

 Orbital symmetries:
       Occupied  (A) (A) (A) (A) (A) (A) (A) (A) (A) (A) (A) (A)
                 (A) (A) (A) (A) (A) (A) (A) (A) (A) (A) (A) (A)
                 (A) (A) (A) (A) (A) (A) (A) (A) (A) (A) (A) (A)
                 (A) (A) (A) (A) (A) (A) (A) (A) (A) (A) (A) (A)
                 (A) (A) (A) (A) (A) (A) (A) (A) (A) (A) (A) (A)
                 (A) (A) (A) (A) (A) (A) (A) (A) (A)
       Virtual   (A) (A) (A) (A) (A) (A) (A) (A) (A) (A) (A) (A)
                 (A) (A) (A) (A) (A) (A) (A) (A) (A) (A) (A) (A)
                 (A) (A) (A) (A) (A) (A) (A) (A) (A) (A) (A) (A)
                 (A) (A) (A) (A) (A) (A) (A) (A) (A) (A) (A) (A)
                 (A) (A) (A) (A) (A) (A) (A) (A) (A) (A) (A) (A)
                 (A) (A) (A) (A) (A) (A) (A) (A) (A) (A) (A) (A)
                 (A) (A) (A) (A) (A) (A) (A) (A) (A) (A) (A) (A)
                 (A) (A) (A) (A) (A) (A) (A) (A) (A) (A) (A) (A)
                 (A) (A) (A) (A) (A) (A) (A) (A) (A) (A) (A) (A)
                 (A) (A) (A) (A) (A) (A) (A) (A) (A) (A) (A) (A)
                 (A) (A) (A) (A) (A) (A) (A) (A) (A) (A) (A) (A)
                 (A) (A) (A) (A) (A) (A) (A) (A) (A) (A) (A) (A)
                 (A) (A) (A) (A) (A) (A) (A) (A) (A) (A) (A) (A)
                 (A) (A) (A) (A) (A) (A) (A) (A) (A) (A) (A) (A)
                 (A) (A) (A) (A) (A) (A) (A) (A) (A) (A) (A) (A)
                 (A) (A) (A) (A) (A) (A) (A) (A) (A) (A) (A) (A)
                 (A) (A) (A) (A) (A) (A) (A) (A) (A) (A) (A) (A)
                 (A) (A) (A) (A) (A) (A) (A) (A) (A) (A) (A) (A)
                 (A) (A) (A) (A) (A) (A) (A) (A) (A) (A) (A) (A)
                 (A) (A) (A) (A) (A) (A) (A) (A) (A) (A) (A) (A)
                 (A) (A) (A) (A) (A) (A) (A) (A) (A) (A) (A) (A)
                 (A) (A) (A) (A) (A) (A) (A) (A) (A) (A) (A) (A)
                 (A) (A) (A) (A) (A) (A) (A) (A) (A) (A) (A) (A)
                 (A) (A) (A) (A) (A) (A) (A) (A) (A) (A) (A) (A)
                 (A) (A) (A) (A) (A) (A) (A) (A) (A) (A) (A) (A)
                 (A) (A) (A) (A) (A) (A) (A) (A) (A) (A) (A) (A)
                 (A) (A) (A) (A) (A) (A) (A) (A) (A) (A) (A) (A)
                 (A) (A) (A) (A) (A) (A) (A) (A) (A) (A) (A) (A)
                 (A) (A) (A) (A) (A) (A) (A) (A) (A) (A) (A) (A)
                 (A) (A) (A) (A) (A) (A) (A) (A) (A) (A) (A) (A)
                 (A) (A) (A) (A) (A) (A) (A) (A) (A) (A) (A) (A)
                 (A) (A) (A) (A) (A) (A) (A) (A) (A) (A) (A) (A)
                 (A) (A) (A) (A) (A) (A) (A) (A) (A) (A) (A) (A)
                 (A) (A) (A) (A) (A) (A) (A) (A) (A) (A) (A) (A)
                 (A) (A) (A) (A) (A) (A) (A) (A) (A) (A) (A) (A)
                 (A) (A) (A) (A) (A) (A) (A) (A) (A) (A) (A) (A)
                 (A) (A) (A) (A) (A) (A) (A) (A) (A) (A) (A) (A)
                 (A) (A) (A) (A) (A) (A) (A) (A) (A) (A) (A) (A)
                 (A) (A) (A) (A) (A) (A) (A) (A) (A) (A) (A) (A)
                 (A) (A) (A) (A) (A) (A) (A) (A) (A) (A) (A) (A)
                 (A) (A) (A) (A) (A) (A) (A) (A) (A) (A) (A) (A)
                 (A) (A) (A) (A) (A) (A) (A) (A) (A) (A) (A) (A)
                 (A) (A) (A) (A) (A) (A) (A) (A) (A) (A) (A) (A)
                 (A) (A) (A) (A) (A) (A) (A) (A) (A) (A) (A) (A)
                 (A) (A) (A) (A) (A) (A) (A) (A) (A) (A) (A) (A)
                 (A) (A) (A) (A) (A) (A) (A)
 The electronic state is 1-A.
 Alpha  occ. eigenvalues --  -19.44287 -19.42090 -19.41024 -19.39669 -19.39390
 Alpha  occ. eigenvalues --  -14.58117 -14.57858 -10.45499 -10.45473 -10.44865
 Alpha  occ. eigenvalues --  -10.43649 -10.43355 -10.43122 -10.42732 -10.42626
 Alpha  occ. eigenvalues --  -10.40336 -10.39990  -1.30635  -1.26624  -1.25013
 Alpha  occ. eigenvalues --   -1.23896  -1.23398  -1.17763  -1.16635  -1.03741
 Alpha  occ. eigenvalues --   -1.00270  -0.99215  -0.93439  -0.88800  -0.85413
 Alpha  occ. eigenvalues --   -0.84278  -0.79798  -0.79321  -0.79112  -0.78876
 Alpha  occ. eigenvalues --   -0.76728  -0.76419  -0.76273  -0.74588  -0.72471
 Alpha  occ. eigenvalues --   -0.70660  -0.69715  -0.68495  -0.66085  -0.65224
 Alpha  occ. eigenvalues --   -0.64591  -0.63874  -0.63285  -0.61909  -0.61519
 Alpha  occ. eigenvalues --   -0.60950  -0.60381  -0.59512  -0.59190  -0.58894
 Alpha  occ. eigenvalues --   -0.57985  -0.56260  -0.55264  -0.54937  -0.54598
 Alpha  occ. eigenvalues --   -0.54265  -0.53593  -0.53300  -0.53234  -0.51431
 Alpha  occ. eigenvalues --   -0.48682  -0.47824  -0.45400  -0.44412
 Alpha virt. eigenvalues --   -0.08666  -0.07278  -0.07115  -0.05516  -0.04652
 Alpha virt. eigenvalues --   -0.04480  -0.03725  -0.03119  -0.02760  -0.02372
 Alpha virt. eigenvalues --   -0.02133  -0.01404  -0.01003  -0.00800  -0.00393
 Alpha virt. eigenvalues --   -0.00124   0.00129   0.00744   0.01119   0.01299
 Alpha virt. eigenvalues --    0.01874   0.02356   0.02361   0.02780   0.02938
 Alpha virt. eigenvalues --    0.03163   0.03420   0.03827   0.04197   0.04565
 Alpha virt. eigenvalues --    0.05077   0.05407   0.05543   0.05945   0.06322
 Alpha virt. eigenvalues --    0.06716   0.06874   0.07064   0.07263   0.07424
 Alpha virt. eigenvalues --    0.07600   0.07823   0.08165   0.08397   0.08521
 Alpha virt. eigenvalues --    0.08723   0.09000   0.09255   0.09815   0.09925
 Alpha virt. eigenvalues --    0.10390   0.10622   0.10980   0.11391   0.11938
 Alpha virt. eigenvalues --    0.12059   0.12202   0.12314   0.12453   0.12826
 Alpha virt. eigenvalues --    0.13192   0.13229   0.13534   0.13879   0.14430
 Alpha virt. eigenvalues --    0.14784   0.15225   0.15385   0.15853   0.15986
 Alpha virt. eigenvalues --    0.16097   0.16456   0.16872   0.17136   0.17256
 Alpha virt. eigenvalues --    0.17377   0.17736   0.17873   0.18125   0.18337
 Alpha virt. eigenvalues --    0.18456   0.18628   0.19049   0.19539   0.19780
 Alpha virt. eigenvalues --    0.19982   0.20146   0.20629   0.20772   0.21134
 Alpha virt. eigenvalues --    0.21465   0.21850   0.22004   0.22485   0.22834
 Alpha virt. eigenvalues --    0.23085   0.23365   0.23692   0.23988   0.24457
 Alpha virt. eigenvalues --    0.24882   0.25234   0.25492   0.25909   0.26246
 Alpha virt. eigenvalues --    0.26665   0.26826   0.26885   0.27307   0.27708
 Alpha virt. eigenvalues --    0.28087   0.28545   0.28811   0.28973   0.29243
 Alpha virt. eigenvalues --    0.29572   0.29874   0.30055   0.30326   0.30937
 Alpha virt. eigenvalues --    0.31342   0.31910   0.32116   0.32754   0.33028
 Alpha virt. eigenvalues --    0.33221   0.33402   0.34109   0.34310   0.34951
 Alpha virt. eigenvalues --    0.35464   0.35861   0.35916   0.36274   0.36725
 Alpha virt. eigenvalues --    0.37068   0.37743   0.38389   0.38471   0.38693
 Alpha virt. eigenvalues --    0.39077   0.39196   0.39867   0.40248   0.40439
 Alpha virt. eigenvalues --    0.41023   0.41484   0.41880   0.42378   0.42720
 Alpha virt. eigenvalues --    0.43075   0.43476   0.43776   0.44129   0.44744
 Alpha virt. eigenvalues --    0.44879   0.45130   0.45329   0.45660   0.46146
 Alpha virt. eigenvalues --    0.46551   0.46687   0.46926   0.47464   0.47774
 Alpha virt. eigenvalues --    0.47928   0.48525   0.48726   0.49049   0.49896
 Alpha virt. eigenvalues --    0.50250   0.50423   0.50699   0.51253   0.51692
 Alpha virt. eigenvalues --    0.52169   0.52589   0.52808   0.53123   0.53152
 Alpha virt. eigenvalues --    0.53687   0.54126   0.54443   0.54659   0.54962
 Alpha virt. eigenvalues --    0.55581   0.55768   0.56705   0.56787   0.57199
 Alpha virt. eigenvalues --    0.57597   0.58060   0.58355   0.58843   0.59058
 Alpha virt. eigenvalues --    0.59695   0.60008   0.60490   0.60692   0.61505
 Alpha virt. eigenvalues --    0.61710   0.61869   0.62124   0.62757   0.62831
 Alpha virt. eigenvalues --    0.63184   0.63610   0.64194   0.64456   0.65023
 Alpha virt. eigenvalues --    0.65634   0.66143   0.66852   0.67108   0.67788
 Alpha virt. eigenvalues --    0.68068   0.68128   0.68369   0.69039   0.69414
 Alpha virt. eigenvalues --    0.69505   0.70236   0.70521   0.71281   0.71350
 Alpha virt. eigenvalues --    0.71977   0.72299   0.72584   0.72811   0.73586
 Alpha virt. eigenvalues --    0.73981   0.74388   0.74848   0.75852   0.76022
 Alpha virt. eigenvalues --    0.76358   0.76941   0.77392   0.77429   0.77618
 Alpha virt. eigenvalues --    0.79178   0.79592   0.80030   0.80256   0.80910
 Alpha virt. eigenvalues --    0.81156   0.82067   0.82456   0.82969   0.83402
 Alpha virt. eigenvalues --    0.83765   0.84108   0.84976   0.85664   0.86511
 Alpha virt. eigenvalues --    0.86728   0.87674   0.87805   0.88404   0.88891
 Alpha virt. eigenvalues --    0.89897   0.90088   0.91105   0.91499   0.92148
 Alpha virt. eigenvalues --    0.92577   0.92885   0.93910   0.94687   0.95153
 Alpha virt. eigenvalues --    0.95841   0.96569   0.96766   0.97710   0.97862
 Alpha virt. eigenvalues --    0.99177   0.99477   1.00277   1.01244   1.02429
 Alpha virt. eigenvalues --    1.02878   1.03253   1.04238   1.04746   1.05872
 Alpha virt. eigenvalues --    1.06397   1.07058   1.07538   1.08237   1.08457
 Alpha virt. eigenvalues --    1.08782   1.09446   1.10721   1.11912   1.12153
 Alpha virt. eigenvalues --    1.12892   1.14359   1.14556   1.14926   1.15571
 Alpha virt. eigenvalues --    1.15964   1.16399   1.17129   1.18483   1.19461
 Alpha virt. eigenvalues --    1.19926   1.20134   1.21538   1.22074   1.22624
 Alpha virt. eigenvalues --    1.23349   1.24273   1.25234   1.25333   1.26514
 Alpha virt. eigenvalues --    1.27054   1.28154   1.28522   1.30570   1.30991
 Alpha virt. eigenvalues --    1.32275   1.32634   1.33557   1.33855   1.34428
 Alpha virt. eigenvalues --    1.34858   1.36083   1.36540   1.36843   1.37994
 Alpha virt. eigenvalues --    1.39582   1.40297   1.41350   1.41879   1.43297
 Alpha virt. eigenvalues --    1.44272   1.44943   1.45528   1.46201   1.47422
 Alpha virt. eigenvalues --    1.47764   1.49020   1.49831   1.50412   1.51548
 Alpha virt. eigenvalues --    1.51879   1.53146   1.54089   1.54894   1.56430
 Alpha virt. eigenvalues --    1.57042   1.58466   1.58893   1.59231   1.60377
 Alpha virt. eigenvalues --    1.61251   1.62295   1.62901   1.63462   1.64507
 Alpha virt. eigenvalues --    1.64939   1.65839   1.66532   1.67483   1.68123
 Alpha virt. eigenvalues --    1.69323   1.70227   1.70537   1.70819   1.71062
 Alpha virt. eigenvalues --    1.72200   1.72563   1.73273   1.73964   1.74433
 Alpha virt. eigenvalues --    1.75087   1.76185   1.76365   1.77103   1.77814
 Alpha virt. eigenvalues --    1.78409   1.79507   1.81345   1.82103   1.82488
 Alpha virt. eigenvalues --    1.83224   1.83326   1.83760   1.84455   1.85259
 Alpha virt. eigenvalues --    1.86231   1.87023   1.87661   1.87945   1.88165
 Alpha virt. eigenvalues --    1.89567   1.89764   1.90719   1.91541   1.91667
 Alpha virt. eigenvalues --    1.92292   1.93440   1.94213   1.95048   1.96219
 Alpha virt. eigenvalues --    1.96495   1.97191   1.97931   1.99017   2.00488
 Alpha virt. eigenvalues --    2.01240   2.01472   2.02384   2.02697   2.03215
 Alpha virt. eigenvalues --    2.03658   2.04744   2.06446   2.08107   2.08589
 Alpha virt. eigenvalues --    2.09571   2.11066   2.11581   2.12359   2.12946
 Alpha virt. eigenvalues --    2.13780   2.14074   2.15443   2.15982   2.16403
 Alpha virt. eigenvalues --    2.17414   2.18090   2.18473   2.19419   2.20289
 Alpha virt. eigenvalues --    2.20971   2.23430   2.23643   2.23746   2.24911
 Alpha virt. eigenvalues --    2.26140   2.27643   2.28706   2.29100   2.30078
 Alpha virt. eigenvalues --    2.30756   2.31161   2.32045   2.32774   2.33241
 Alpha virt. eigenvalues --    2.35038   2.36363   2.36884   2.38224   2.39397
 Alpha virt. eigenvalues --    2.40225   2.41939   2.42797   2.44891   2.45563
 Alpha virt. eigenvalues --    2.45853   2.47133   2.48715   2.49422   2.49830
 Alpha virt. eigenvalues --    2.51853   2.52758   2.54602   2.55214   2.55956
 Alpha virt. eigenvalues --    2.56996   2.58396   2.59924   2.60921   2.61902
 Alpha virt. eigenvalues --    2.62469   2.64082   2.64949   2.65687   2.66275
 Alpha virt. eigenvalues --    2.67329   2.67929   2.70066   2.70497   2.72920
 Alpha virt. eigenvalues --    2.73853   2.74677   2.75902   2.77287   2.77637
 Alpha virt. eigenvalues --    2.78198   2.80319   2.81347   2.82374   2.83922
 Alpha virt. eigenvalues --    2.84607   2.85456   2.86343   2.87537   2.88880
 Alpha virt. eigenvalues --    2.90745   2.91736   2.92222   2.93061   2.93901
 Alpha virt. eigenvalues --    2.95000   3.00031   3.01775   3.04759   3.05565
 Alpha virt. eigenvalues --    3.08778   3.11278   3.16417   3.18403   3.24704
 Alpha virt. eigenvalues --    3.29904   3.33068   3.34690   3.34827   3.37602
 Alpha virt. eigenvalues --    3.38134   3.38454   3.41141   3.41895   3.43446
 Alpha virt. eigenvalues --    3.44271   3.45841   3.45862   3.47494   3.48626
 Alpha virt. eigenvalues --    3.54786   3.61686   3.66179   3.68503   3.71274
 Alpha virt. eigenvalues --    3.80545   3.84101   3.88224   3.89593   3.93244
 Alpha virt. eigenvalues --    4.01367   4.02379   4.09876   4.11617   4.13020
 Alpha virt. eigenvalues --    4.35534   5.00731
          Condensed to atoms (all electrons):
               1          2          3          4          5          6
     1  N    8.511899  -0.021526   0.540763  -0.944281   0.304719  -1.187097
     2  C   -0.021526  11.572741  -3.994816   2.840212  -1.842634  -0.925805
     3  C    0.540763  -3.994816  13.675826  -6.368767   1.704508  -0.856289
     4  C   -0.944281   2.840212  -6.368767  26.638828 -12.013400  -1.091772
     5  C    0.304719  -1.842634   1.704508 -12.013400  28.736346  -4.644582
     6  C   -1.187097  -0.925805  -0.856289  -1.091772  -4.644582  17.695227
     7  C    0.572162  -1.520322   1.309884  -1.498001 -11.491316  -1.768090
     8  C   -0.039281  -0.143429   0.017526   0.058970  -0.343048  -0.752305
     9  C    0.017490   0.004235  -0.008315  -0.107973   0.500201  -0.033355
    10  C    0.026731  -0.030368  -0.015016   0.150901  -0.750319  -0.143133
    11  N   -0.034573   0.209171  -0.290326  -0.387534   2.643413   0.405265
    12  C    0.025812  -0.043006   0.109685  -0.384687   0.841450  -0.214225
    13  H   -0.154476  -0.759564   0.213811   0.136826   0.000186   0.157653
    14  H   -0.073903   0.380969  -1.443651   0.846568  -0.124396   0.040299
    15  H   -0.046910  -0.262349   0.970524  -2.984308   1.268800   0.074450
    16  H   -0.048688   0.003205   0.010974  -0.189487  -0.804627  -1.145414
    17  H    0.001946   0.051614  -0.076294   0.037017   1.225036  -0.194466
    18  H   -0.011942   0.004478  -0.000618  -0.057425   0.432515   0.268754
    19  H    0.015038   0.003658  -0.025461   0.069789   0.012166  -0.138507
    20  H   -0.001890   0.002694  -0.002601  -0.004774   0.028070   0.040271
    21  H    0.002404  -0.002499   0.000792   0.007962  -0.130013  -0.044948
    22  H   -0.001688  -0.002164   0.001899   0.017513   0.223111   0.031885
    23  H    0.000651  -0.002036   0.000836   0.043908  -0.282385  -0.018981
    24  H   -0.003261   0.024225  -0.034776  -0.009280   0.230858   0.036617
    25  H    0.005101  -0.010720   0.019765  -0.074312   0.070844  -0.084714
    26  H   -0.003072  -0.079003   0.120138   0.061026  -0.269855   0.074136
    27  O   -0.025908   0.045710  -0.012460   0.017917  -0.100370  -0.017816
    28  O    0.017768   0.000565   0.004574  -0.012500  -0.072699  -0.067494
    29  O   -0.004047   0.052376  -0.017299   0.020921  -0.033263  -0.048586
    30  H    0.002579  -0.015134   0.011706  -0.007579   0.014680  -0.011240
    31  H   -0.004954   0.003004  -0.001098   0.004030   0.015703   0.031491
    32  H   -0.005242  -0.000213   0.001231   0.006578  -0.015720   0.037803
    33  H    0.156489   0.095862  -0.076263   0.025349  -0.023063  -0.118969
    34  H    0.006386  -0.009435   0.005475  -0.006538   0.024631  -0.029725
    35  H    0.000151  -0.005571  -0.001829  -0.000027   0.000354  -0.009828
    36  H    0.042429  -0.028135   0.022481  -0.077477  -0.117619  -0.191075
    37  O    0.032533   0.028797  -0.010178  -0.007570   0.033273  -0.061739
    38  H    0.009086   0.003834   0.000072  -0.006409   0.030825  -0.039926
    39  H   -0.002484  -0.001342  -0.000307  -0.000538  -0.005151   0.016402
    40  O   -0.032248  -0.045653   0.029491  -0.006821   0.011421   0.012223
    41  H    0.002786   0.012300  -0.011394   0.006885  -0.011762   0.001801
    42  H    0.001488  -0.002460   0.004249  -0.002515   0.002991  -0.001600
               7          8          9         10         11         12
     1  N    0.572162  -0.039281   0.017490   0.026731  -0.034573   0.025812
     2  C   -1.520322  -0.143429   0.004235  -0.030368   0.209171  -0.043006
     3  C    1.309884   0.017526  -0.008315  -0.015016  -0.290326   0.109685
     4  C   -1.498001   0.058970  -0.107973   0.150901  -0.387534  -0.384687
     5  C  -11.491316  -0.343048   0.500201  -0.750319   2.643413   0.841450
     6  C   -1.768090  -0.752305  -0.033355  -0.143133   0.405265  -0.214225
     7  C   30.259591  -1.031535  -0.140119  -0.181008  -7.532047  -1.163910
     8  C   -1.031535   8.370033  -0.901448   0.717659  -0.949622  -0.172681
     9  C   -0.140119  -0.901448   6.265286   0.069410  -0.422810   0.042470
    10  C   -0.181008   0.717659   0.069410   5.891186  -0.231283  -0.207265
    11  N   -7.532047  -0.949622  -0.422810  -0.231283  17.396165   1.136389
    12  C   -1.163910  -0.172681   0.042470  -0.207265   1.136389   4.876860
    13  H   -0.027984   0.005002   0.000248  -0.000649   0.009004   0.002021
    14  H    0.032209  -0.001240   0.000648  -0.000046  -0.001762  -0.006364
    15  H    0.039429  -0.037459  -0.002827   0.000872  -0.007535   0.048702
    16  H   -0.025745   0.128901   0.001297   0.039019  -0.194881   0.033862
    17  H   -3.030005   0.737962  -0.059725   0.045602  -0.305142  -0.089390
    18  H   -0.011204  -1.120518   0.182701  -0.218724   0.408234   0.080404
    19  H   -0.238525  -0.105596   0.301053   0.056224  -0.092815  -0.046406
    20  H   -0.094466   0.211341  -0.235635   0.171491  -0.130081  -0.032600
    21  H    0.338865   0.235380  -0.420429  -0.065257   0.082820   0.011245
    22  H    0.133991  -0.003942  -0.023068  -0.356512  -0.317577  -0.050133
    23  H    0.719218   0.089125   0.119454  -0.109070  -1.350025  -0.143486
    24  H   -0.296990   0.038543   0.027062   0.074711  -0.615701   0.203619
    25  H    0.205001  -0.087327   0.070212  -0.039786  -0.333780   0.090203
    26  H    0.196149   0.107486  -0.051881  -0.024030  -0.015283   0.127444
    27  O   -0.014015  -0.003386  -0.001371  -0.000814   0.004366   0.002926
    28  O    0.138427   0.006896   0.016812   0.032287  -0.133468  -0.038354
    29  O   -0.000444   0.006825   0.001336   0.005903  -0.043075  -0.006687
    30  H   -0.003036   0.001975   0.000211   0.000164   0.000416   0.000186
    31  H   -0.071799   0.024794  -0.014994   0.029615  -0.025891   0.021620
    32  H   -0.018961  -0.000502   0.000258   0.001763   0.019287  -0.002337
    33  H    0.023798  -0.014887  -0.000987  -0.001347  -0.001456  -0.002341
    34  H   -0.003509   0.001273  -0.002602  -0.002301   0.003908   0.003299
    35  H    0.040036   0.001992   0.011354   0.009148  -0.045272  -0.010809
    36  H    0.766169  -0.055043  -0.028028  -0.212957  -0.336201  -0.156568
    37  O   -0.048387  -0.002311  -0.000076  -0.004844   0.011097   0.001293
    38  H   -0.007853   0.000510   0.000329  -0.000681   0.003348   0.004290
    39  H    0.004854  -0.000608   0.000064   0.000203   0.000122  -0.002500
    40  O    0.000733   0.000256   0.000029   0.000180   0.000618   0.000459
    41  H    0.000133  -0.000228  -0.000020   0.000049  -0.000209   0.000066
    42  H    0.000895   0.000042  -0.000009   0.000013   0.000115  -0.000271
              13         14         15         16         17         18
     1  N   -0.154476  -0.073903  -0.046910  -0.048688   0.001946  -0.011942
     2  C   -0.759564   0.380969  -0.262349   0.003205   0.051614   0.004478
     3  C    0.213811  -1.443651   0.970524   0.010974  -0.076294  -0.000618
     4  C    0.136826   0.846568  -2.984308  -0.189487   0.037017  -0.057425
     5  C    0.000186  -0.124396   1.268800  -0.804627   1.225036   0.432515
     6  C    0.157653   0.040299   0.074450  -1.145414  -0.194466   0.268754
     7  C   -0.027984   0.032209   0.039429  -0.025745  -3.030005  -0.011204
     8  C    0.005002  -0.001240  -0.037459   0.128901   0.737962  -1.120518
     9  C    0.000248   0.000648  -0.002827   0.001297  -0.059725   0.182701
    10  C   -0.000649  -0.000046   0.000872   0.039019   0.045602  -0.218724
    11  N    0.009004  -0.001762  -0.007535  -0.194881  -0.305142   0.408234
    12  C    0.002021  -0.006364   0.048702   0.033862  -0.089390   0.080404
    13  H    2.264950  -0.118638  -0.009853   0.011664   0.001336   0.001198
    14  H   -0.118638   2.246157  -0.139972  -0.009157  -0.001089  -0.001973
    15  H   -0.009853  -0.139972   3.222066  -0.009786  -0.175487   0.007900
    16  H    0.011664  -0.009157  -0.009786   4.670788  -0.043123   0.065637
    17  H    0.001336  -0.001089  -0.175487  -0.043123   3.698983  -0.348961
    18  H    0.001198  -0.001973   0.007900   0.065637  -0.348961   2.643568
    19  H    0.000672   0.000949  -0.002910  -0.182253   0.227303  -0.671643
    20  H    0.000099  -0.000077   0.003593  -0.004529   0.065273  -0.309532
    21  H   -0.000070   0.000013  -0.001283   0.019456  -0.055880   0.177875
    22  H    0.000099  -0.000282   0.001427   0.015803  -0.090334   0.063834
    23  H   -0.000082   0.000071  -0.002199  -0.016929   0.100747  -0.043268
    24  H    0.000779  -0.000490   0.010759   0.015782   0.082025   0.008540
    25  H    0.000227  -0.000616  -0.001996  -0.017532   0.021655   0.001114
    26  H   -0.002791  -0.003830   0.009073   0.012931   0.010755  -0.000145
    27  O    0.004947  -0.000130   0.000186  -0.012560  -0.000302   0.000242
    28  O   -0.000173   0.000107  -0.001236   0.063482   0.002207  -0.000603
    29  O    0.004031  -0.000585   0.001011   0.046884  -0.000035   0.000443
    30  H    0.003705  -0.000386   0.000131   0.002777  -0.000056  -0.000053
    31  H    0.000216  -0.000088   0.000738   0.010137  -0.001177   0.002685
    32  H    0.001468  -0.000365   0.000713  -0.002769  -0.000697   0.000417
    33  H   -0.070630   0.009485  -0.001726  -0.031568  -0.001552   0.000498
    34  H    0.000473  -0.000010  -0.000698  -0.006808   0.000106  -0.000059
    35  H   -0.000867   0.000468  -0.000448   0.001344   0.001968  -0.001346
    36  H   -0.003303   0.001506  -0.012564  -0.082809   0.014037  -0.025193
    37  O   -0.002113   0.000086  -0.000589  -0.009065  -0.000460   0.000024
    38  H    0.001918   0.000003  -0.000009  -0.001650  -0.000469  -0.000046
    39  H   -0.000300   0.000112  -0.000073   0.002289   0.000162  -0.000005
    40  O    0.016325   0.003008   0.000314   0.002691  -0.000257  -0.000005
    41  H   -0.003858   0.001626  -0.000207  -0.000177  -0.000001  -0.000004
    42  H   -0.000544  -0.000296  -0.000046  -0.000496   0.000070   0.000003
              19         20         21         22         23         24
     1  N    0.015038  -0.001890   0.002404  -0.001688   0.000651  -0.003261
     2  C    0.003658   0.002694  -0.002499  -0.002164  -0.002036   0.024225
     3  C   -0.025461  -0.002601   0.000792   0.001899   0.000836  -0.034776
     4  C    0.069789  -0.004774   0.007962   0.017513   0.043908  -0.009280
     5  C    0.012166   0.028070  -0.130013   0.223111  -0.282385   0.230858
     6  C   -0.138507   0.040271  -0.044948   0.031885  -0.018981   0.036617
     7  C   -0.238525  -0.094466   0.338865   0.133991   0.719218  -0.296990
     8  C   -0.105596   0.211341   0.235380  -0.003942   0.089125   0.038543
     9  C    0.301053  -0.235635  -0.420429  -0.023068   0.119454   0.027062
    10  C    0.056224   0.171491  -0.065257  -0.356512  -0.109070   0.074711
    11  N   -0.092815  -0.130081   0.082820  -0.317577  -1.350025  -0.615701
    12  C   -0.046406  -0.032600   0.011245  -0.050133  -0.143486   0.203619
    13  H    0.000672   0.000099  -0.000070   0.000099  -0.000082   0.000779
    14  H    0.000949  -0.000077   0.000013  -0.000282   0.000071  -0.000490
    15  H   -0.002910   0.003593  -0.001283   0.001427  -0.002199   0.010759
    16  H   -0.182253  -0.004529   0.019456   0.015803  -0.016929   0.015782
    17  H    0.227303   0.065273  -0.055880  -0.090334   0.100747   0.082025
    18  H   -0.671643  -0.309532   0.177875   0.063834  -0.043268   0.008540
    19  H    2.310850   0.200028  -0.428527  -0.061134   0.060288   0.001768
    20  H    0.200028   2.123180  -0.616611  -0.254331   0.126558   0.005944
    21  H   -0.428527  -0.616611   2.257859   0.190225  -0.317433  -0.004650
    22  H   -0.061134  -0.254331   0.190225   2.538085  -0.576349   0.021695
    23  H    0.060288   0.126558  -0.317433  -0.576349   3.032019   0.030083
    24  H    0.001768   0.005944  -0.004650   0.021695   0.030083   2.218801
    25  H   -0.008191  -0.003274   0.011649   0.005876  -0.011998  -0.415182
    26  H    0.011041  -0.004260  -0.005948   0.019585   0.022674  -0.403941
    27  O   -0.000400  -0.000105  -0.000113  -0.000008  -0.000115   0.000319
    28  O   -0.007006  -0.004075   0.003618  -0.003496   0.058239  -0.005932
    29  O    0.002057  -0.000109   0.000825   0.000050   0.002255  -0.000488
    30  H    0.001327   0.000011  -0.000077   0.000014  -0.000013  -0.000016
    31  H    0.001611  -0.000509   0.003752   0.003369  -0.003812   0.006761
    32  H   -0.000902  -0.000011  -0.000084   0.000696  -0.000558   0.000371
    33  H   -0.004143  -0.000035   0.000259  -0.000118   0.000410  -0.000095
    34  H    0.000501  -0.000054   0.000003  -0.000126   0.000068   0.000148
    35  H    0.003608  -0.000102  -0.002276  -0.001606   0.004479  -0.002869
    36  H    0.021826   0.002022   0.042071   0.024058   0.056943  -0.061590
    37  O   -0.000652  -0.000011   0.000052  -0.000050  -0.001900   0.006191
    38  H   -0.000018   0.000039   0.000042  -0.000057  -0.000312   0.002415
    39  H   -0.000022  -0.000002   0.000015  -0.000016   0.000082  -0.000678
    40  O    0.000057   0.000008  -0.000018  -0.000009   0.000047  -0.000188
    41  H   -0.000031   0.000001  -0.000001  -0.000003   0.000003  -0.000030
    42  H    0.000014  -0.000002  -0.000002  -0.000000   0.000007  -0.000121
              25         26         27         28         29         30
     1  N    0.005101  -0.003072  -0.025908   0.017768  -0.004047   0.002579
     2  C   -0.010720  -0.079003   0.045710   0.000565   0.052376  -0.015134
     3  C    0.019765   0.120138  -0.012460   0.004574  -0.017299   0.011706
     4  C   -0.074312   0.061026   0.017917  -0.012500   0.020921  -0.007579
     5  C    0.070844  -0.269855  -0.100370  -0.072699  -0.033263   0.014680
     6  C   -0.084714   0.074136  -0.017816  -0.067494  -0.048586  -0.011240
     7  C    0.205001   0.196149  -0.014015   0.138427  -0.000444  -0.003036
     8  C   -0.087327   0.107486  -0.003386   0.006896   0.006825   0.001975
     9  C    0.070212  -0.051881  -0.001371   0.016812   0.001336   0.000211
    10  C   -0.039786  -0.024030  -0.000814   0.032287   0.005903   0.000164
    11  N   -0.333780  -0.015283   0.004366  -0.133468  -0.043075   0.000416
    12  C    0.090203   0.127444   0.002926  -0.038354  -0.006687   0.000186
    13  H    0.000227  -0.002791   0.004947  -0.000173   0.004031   0.003705
    14  H   -0.000616  -0.003830  -0.000130   0.000107  -0.000585  -0.000386
    15  H   -0.001996   0.009073   0.000186  -0.001236   0.001011   0.000131
    16  H   -0.017532   0.012931  -0.012560   0.063482   0.046884   0.002777
    17  H    0.021655   0.010755  -0.000302   0.002207  -0.000035  -0.000056
    18  H    0.001114  -0.000145   0.000242  -0.000603   0.000443  -0.000053
    19  H   -0.008191   0.011041  -0.000400  -0.007006   0.002057   0.001327
    20  H   -0.003274  -0.004260  -0.000105  -0.004075  -0.000109   0.000011
    21  H    0.011649  -0.005948  -0.000113   0.003618   0.000825  -0.000077
    22  H    0.005876   0.019585  -0.000008  -0.003496   0.000050   0.000014
    23  H   -0.011998   0.022674  -0.000115   0.058239   0.002255  -0.000013
    24  H   -0.415182  -0.403941   0.000319  -0.005932  -0.000488  -0.000016
    25  H    2.351940  -0.667964  -0.000245   0.015023   0.001964   0.000048
    26  H   -0.667964   2.013567  -0.000795  -0.004756  -0.007363   0.000394
    27  O   -0.000245  -0.000795   8.091128  -0.000750  -0.120502   0.380429
    28  O    0.015023  -0.004756  -0.000750   8.128120  -0.082784  -0.000399
    29  O    0.001964  -0.007363  -0.120502  -0.082784   8.443542   0.014405
    30  H    0.000048   0.000394   0.380429  -0.000399   0.014405   0.556606
    31  H   -0.004403   0.004906   0.001397   0.391255   0.012690   0.000101
    32  H   -0.004367   0.003343   0.007176  -0.007343   0.165894   0.000794
    33  H   -0.000999   0.001544   0.234711  -0.002155  -0.047591  -0.104164
    34  H    0.000195   0.000572   0.037881  -0.004391   0.151649  -0.010317
    35  H    0.005664   0.002884  -0.022166   0.053763   0.148000   0.000572
    36  H    0.131268  -0.043761  -0.001861   0.012745  -0.068980  -0.001574
    37  O    0.006339  -0.042444   0.003934  -0.000935  -0.077000   0.000187
    38  H   -0.000758  -0.003020   0.000008  -0.001300  -0.010417   0.000206
    39  H    0.002523   0.000281   0.000062  -0.000088  -0.001446  -0.000067
    40  O   -0.000354   0.002872  -0.002024   0.000218  -0.003659   0.000882
    41  H    0.000004  -0.000706   0.000152   0.000079   0.000160  -0.000032
    42  H   -0.000044   0.001276  -0.000934  -0.000005   0.000223  -0.000193
              31         32         33         34         35         36
     1  N   -0.004954  -0.005242   0.156489   0.006386   0.000151   0.042429
     2  C    0.003004  -0.000213   0.095862  -0.009435  -0.005571  -0.028135
     3  C   -0.001098   0.001231  -0.076263   0.005475  -0.001829   0.022481
     4  C    0.004030   0.006578   0.025349  -0.006538  -0.000027  -0.077477
     5  C    0.015703  -0.015720  -0.023063   0.024631   0.000354  -0.117619
     6  C    0.031491   0.037803  -0.118969  -0.029725  -0.009828  -0.191075
     7  C   -0.071799  -0.018961   0.023798  -0.003509   0.040036   0.766169
     8  C    0.024794  -0.000502  -0.014887   0.001273   0.001992  -0.055043
     9  C   -0.014994   0.000258  -0.000987  -0.002602   0.011354  -0.028028
    10  C    0.029615   0.001763  -0.001347  -0.002301   0.009148  -0.212957
    11  N   -0.025891   0.019287  -0.001456   0.003908  -0.045272  -0.336201
    12  C    0.021620  -0.002337  -0.002341   0.003299  -0.010809  -0.156568
    13  H    0.000216   0.001468  -0.070630   0.000473  -0.000867  -0.003303
[...]
 .00005819,-0.00004333,0.00001499,0.00000622,-0.00002556,0.00012376,-0.
 00004118,0.00003641,-0.00001310,0.00001090,0.00001019,-0.00001797,-0.0
 0000538,-0.00001500,-0.00003022,-0.00000247,0.00002032,-0.00001825,-0.
 00000993,0.00000755,-0.00000552,0.00000006,-0.00000269,0.00000446,-0.0
 0002664,0.00002533,-0.00000113,0.00011083,0.00000714,-0.00004740,-0.00
 009499,0.00004911,-0.00004175,-0.00005341,-0.00022051,0.00004500,-0.00
 210156,0.00095781,0.00092754,0.00030166,0.00016994,-0.00033890,-0.0003
 1795,-0.00112481,-0.00830162,-0.00021241,-0.00017049,-0.00008708,-0.00
 005263,0.00002834,0.00009100,0.00268942,0.00104149,0.01357516,0.001226
 94,0.00087751,-0.00027298,0.00257032,-0.00240226,0.00087061,-0.0004166
 9,0.00014264,0.00038226,-0.00015991,-0.00022247,0.00009676,-0.07546243
 ,0.06253334,-0.09234367,0.09598600,-0.07579922,0.10467760,-0.00014249,
 -0.00009667,-0.00000734,-0.00001676,0.00010321,0.00007274,-0.00001755,
 -0.00001255,-0.00005436,0.00001076,0.00001072,-0.00002742,0.00006348,0
 .00001292,0.00000482,0.00012758,-0.00003749,0.00001790,0.00010890,-0.0
 0014642,0.00005674,-0.00000411,0.00003713,-0.00001930,0.00001305,-0.00
 000251,0.00001587,-0.00006246,0.00004302,-0.00005873,0.00009868,0.0000
 4702,-0.00015703,-0.00018265,0.00000347,0.00014053,-0.00000194,0.00000
 018,-0.00000405,-0.00000026,-0.00000490,0.00000527,-0.00001077,-0.0000
 2782,0.00000491,0.00002554,-0.00000450,0.00000370,-0.00001691,0.000007
 64,-0.00000078,0.00000712,0.00000600,-0.00001388,-0.00000393,-0.000004
 44,-0.00001747,0.00000285,0.00000900,-0.00001435,-0.00000147,-0.000001
 24,-0.00001100,-0.00001021,-0.00000333,0.00000566,-0.00001162,0.000017
 05,0.00000984,0.00006967,0.00002613,-0.00005065,-0.00015526,0.00009068
 ,-0.00001441,0.00004908,-0.00021720,0.00016868,-0.00009363,-0.00012040
 ,0.00001646,-0.00032049,-0.00001636,-0.00024584,-0.00054330,0.00183591
 ,0.00173194,0.00003407,0.00000259,-0.00002086,-0.00004709,-0.00000650,
 0.00009732,-0.00055269,-0.00423866,-0.00058643,0.00006510,0.00012486,0
 .00002701,-0.00004612,0.00006727,-0.00012588,0.00081022,-0.00020258,0.
 00006498,0.00006549,0.00008734,0.00016053,-0.07892962,-0.05866121,0.14
 463943,0.01319591,0.01475180,-0.03071588,0.06976676,-0.00003180,-0.000
 05333,0.00002413,-0.00000339,0.00004224,0.00005106,0.00006393,0.000028
 22,-0.00003102,-0.00004252,0.00002753,-0.00001900,-0.00003824,-0.00000
 101,-0.00002955,0.00007847,-0.00000619,0.00001062,-0.00002991,0.000003
 11,-0.00000411,-0.00000070,-0.00000946,0.00001345,0.00001598,0.0000044
 8,-0.00000541,-0.00005309,0.00004871,-0.00001862,0.00011097,-0.0000807
 3,-0.00002726,-0.00016455,0.00008620,-0.00001510,0.00000546,0.,0.00002
 757,-0.00000895,-0.00003753,0.00002632,-0.00001716,-0.00000787,0.00001
 512,-0.00001280,-0.00000643,0.00000755,0.00000013,-0.00000497,0.000000
 37,0.00000159,-0.00000004,-0.00000042,-0.00000067,-0.00000150,0.000003
 19,0.00000665,0.00000068,-0.00000366,-0.00000027,-0.00000637,-0.000005
 77,0.00000509,-0.00000017,0.00000401,0.00000588,-0.00001351,-0.0000004
 8,0.00000466,-0.00002191,0.00000253,0.00004677,-0.00001571,0.00000275,
 -0.00001633,0.00000013,0.00006942,-0.00010411,-0.00002514,-0.00020211,
 0.00027759,-0.00012095,0.00006149,0.00303191,-0.00448962,-0.00528212,0
 .00002266,0.00006613,0.00000974,0.00005610,0.00007421,-0.00005798,-0.0
 0282681,0.00875469,0.00241283,0.00001300,-0.00001603,0.00004776,0.0000
 9641,0.00002557,0.00050893,-0.00073376,-0.00010717,-0.00027231,0.00005
 242,0.00007753,0.00001696,-0.03553273,-0.12062804,0.19883164,-0.010802
 48,-0.00802138,0.01668238,0.04568910,0.12439423,-0.00016153,-0.0002106
 6,-0.00000490,-0.00000595,0.00010641,0.00003041,-0.00004358,0.00001262
 ,-0.00000708,0.00002126,0.00002802,0.00001207,0.00001653,-0.00003352,-
 0.00002268,0.00010094,-0.00003121,-0.00000400,0.00008070,-0.00002231,0
 .00002491,-0.00000009,0.00002777,-0.00001416,0.00000146,-0.00000158,0.
 00001188,0.00004514,0.00001213,-0.00001719,-0.00008991,-0.00007056,-0.
 00012886,-0.00002041,-0.00003011,0.00005909,-0.00000460,0.00003031,0.0
 0000400,0.00000041,-0.00001335,0.00001143,-0.00001981,-0.00001250,0.00
 000241,0.00001149,0.00000262,-0.00000201,-0.00002155,-0.00001279,-0.00
 000937,-0.00000335,-0.00000293,-0.00000571,0.00000032,0.00000216,-0.00
 001827,-0.00000831,-0.00000063,-0.00000455,0.00000499,0.00000167,-0.00
 000881,-0.00001909,-0.00001505,-0.00000586,-0.00000028,0.00001136,0.00
 000830,-0.00005025,-0.00002691,-0.00000611,-0.00002706,0.00003787,0.00
 003071,0.00006146,0.00000986,0.00010041,-0.00012991,-0.00023197,0.0002
 1363,-0.00048093,-0.00012736,0.00000050,0.00003611,-0.00131557,0.00014
 159,-0.00001010,-0.00001394,-0.00005878,0.00002325,-0.00003010,-0.0000
 0242,0.00132525,0.00342422,-0.00419415,0.00018842,0.00024157,0.0000472
 1,-0.00015268,0.00027003,-0.00010650,0.00075038,-0.00017303,-0.0001454
 6,0.00018108,0.00023966,0.00012609,0.10368437,0.20588976,-0.39443680,0
 .00898931,0.00526069,-0.01251180,-0.11429345,-0.21280012,0.41008946,-0
 .00076348,-0.00091102,0.00011561,-0.00072998,0.00030007,0.00027398,0.0
 0015165,0.00009192,0.00013522,-0.00013507,0.00017374,0.00000750,-0.000
 05055,-0.00020951,-0.00023694,0.00069582,-0.00029745,0.00006858,0.0001
 6068,0.00004379,0.00001333,-0.00000037,0.00004600,-0.00003621,-0.00001
 050,-0.00001284,0.00002276,0.00019268,-0.00002850,-0.00000045,-0.00032
 628,-0.00012345,-0.00006537,0.00016694,-0.00002820,0.00001911,-0.00046
 672,0.00016167,0.00007489,-0.00007192,-0.00005626,-0.00001743,-0.00002
 287,0.00000987,-0.00001778,0.00006279,0.00002239,-0.00000124,-0.000045
 17,-0.00002100,-0.00002715,-0.00001724,-0.00001693,-0.00000345,0.00001
 063,0.00000872,-0.00003055,-0.00003305,-0.00000651,0.00000279,0.000012
 95,0.00001496,-0.00000472,-0.00003443,-0.00002381,-0.00001973,0.000001
 75,0.00001545,0.00000356,-0.00008672,-0.00003924,0.00001165,0.00003663
 ,0.00000266,0.00002208,0.00000428,0.00010335,0.00003149,-0.00159698,0.
 00269445,0.00868838,-0.00083901,-0.00009894,0.00010728,-0.00136891,0.0
 0107269,0.00144676,-0.00235051,0.00010727,0.00020312,0.00002747,-0.000
 10863,-0.00005513,0.00149977,-0.00193803,-0.00239862,0.00129553,0.0009
 0448,-0.00057669,0.00034741,-0.00064809,-0.00025540,0.00148588,-0.0000
 3093,-0.00018504,0.00023226,0.00027624,0.00010951,-0.01086334,0.009099
 25,-0.01325716,-0.00230589,-0.00000042,0.00809365,-0.00315143,0.000733
 45,0.00004140,0.61468387,0.00016841,0.00088408,0.00033279,0.00162846,-
 0.00094774,0.00044860,-0.00086467,0.00027464,0.00004317,0.00030172,-0.
 00022961,-0.00018179,-0.00002357,0.00033270,0.00024395,-0.00048223,-0.
 00013847,-0.00032977,0.00021631,-0.00022844,0.00019702,-0.00003825,0.0
 0006665,-0.00007813,-0.00000684,-0.00004465,0.00002282,-0.00003985,0.0
 0002565,-0.00005482,0.00006660,0.00035233,0.00003692,-0.00009492,0.000
 03352,0.00005384,-0.00010432,0.00069903,-0.00022533,0.00007782,0.00008
 053,0.00007229,-0.00007117,-0.00000011,-0.00001161,-0.00012857,-0.0000
 1235,0.00005832,-0.00001710,0.00005278,-0.00000328,0.00001237,0.000010
 25,-0.00000564,0.00000661,-0.00002343,-0.00001769,-0.00000800,0.000023
 40,-0.00000692,-0.00002097,0.00002229,0.00001001,0.00000657,0.00000682
 ,0.00000968,-0.00003462,0.00002623,-0.00001190,0.00006888,0.00001627,-
 0.00000589,-0.00006560,0.00003932,-0.00002935,-0.00002854,-0.00014076,
 0.00002423,0.00212792,0.00314670,-0.00278444,0.00101540,0.00049865,-0.
 00002840,0.00153519,-0.00007363,-0.00115309,0.00075568,-0.00002429,0.0
 0023232,-0.00004405,0.00001761,0.00002122,-0.00162636,0.00070074,0.001
 48188,-0.00029813,-0.00262545,-0.00132674,-0.00059321,-0.00040472,0.00
 065544,-0.00174229,-0.00013223,0.00022902,-0.00030156,-0.00062280,-0.0
 0022810,0.00700962,0.00094910,0.00539482,-0.00035655,-0.00812951,-0.00
 145582,0.00045649,-0.00015524,-0.00080076,0.00481787,0.08771570,0.0012
 5173,0.00110485,0.00072728,-0.00009359,-0.00014867,-0.00018527,0.00026
 301,-0.00003506,0.00009559,0.00017787,-0.00001763,0.00013841,0.0001806
 1,0.00014819,0.00018813,-0.00065672,0.00030029,-0.00002073,-0.00018738
 ,0.00022603,-0.00010172,-0.00001119,-0.00006591,0.00001630,-0.00001396
 ,0.00001834,-0.00002617,0.00000146,-0.00005519,0.00005156,0.00000822,-
 0.00006901,0.00016939,0.00020924,-0.00006615,-0.00019850,0.00002764,-0
 .00034529,-0.00038770,0.00005183,0.00011863,-0.00001475,0.00006730,0.0
 0002924,-0.00000210,-0.00009950,-0.00001151,-0.00013001,0.00005662,-0.
 00001786,0.00002587,-0.00000439,-0.00000254,0.00001885,0.00000061,0.00
 001128,0.00004198,0.00001266,-0.00001181,0.00001673,-0.00000071,-0.000
 00492,0.00000824,0.00001504,0.00001487,0.00000663,0.00001776,-0.000027
 38,-0.00000370,-0.00005172,0.00001263,0.00003934,0.00006217,-0.0000477
 2,0.00002106,0.00002949,0.00014441,-0.00006162,0.00973079,-0.00326702,
 -0.00608953,0.00000926,-0.00008409,0.00030312,0.00029534,-0.00012664,0
 .00489287,0.00141516,0.00022261,0.00108444,0.00001284,0.00001953,-0.00
 007300,0.00187787,-0.00228185,-0.00556866,-0.00310831,-0.00315046,-0.0
 0136991,-0.00265337,0.00290841,-0.00365218,0.00004088,0.00006585,-0.00
 012197,-0.00001406,0.00000447,-0.00015243,-0.01439012,0.00718200,-0.00
 167976,0.00831641,0.00057467,-0.00667835,0.00000956,-0.00045696,0.0010
 9542,-0.13402514,0.16766152,0.48544282,0.00017958,0.00011804,0.0000709
 5,-0.00009922,0.00003805,-0.00005622,0.00011706,-0.00000420,0.00002574
 ,-0.00002973,0.00002066,0.00001539,0.00000748,-0.00000040,0.00000064,-
 0.00002906,0.00003642,0.00001620,-0.00004785,0.00000041,-0.00001587,0.
 00000158,-0.00001520,0.00000993,0.00000157,0.00000389,-0.00000719,-0.0
 0004810,0.00000371,0.00000417,0.00008361,0.00002711,0.00002402,-0.0000
 2250,0.00000179,-0.00001830,-0.00004671,-0.00011116,0.00002317,0.00000
 041,-0.00000642,0.00000893,0.00001169,-0.00000151,0.00000471,-0.000014
 72,-0.00001136,0.00000121,0.00001257,0.00000417,0.00000816,0.00000405,
 0.00000389,0.00000178,-0.00000200,-0.00000155,0.00001023,0.00000928,0.
 00000123,0.00000078,-0.00000343,-0.00000412,0.00000185,0.00000913,0.00
 000689,0.00000532,0.00000038,-0.00000557,-0.00000111,0.00001413,0.0000
 1113,0.00000085,-0.00000468,-0.00000530,-0.00000370,0.00000333,-0.0000
 1049,-0.00000748,0.00125402,-0.00009376,-0.00045697,0.00022730,0.00002
 888,-0.00000696,0.00039940,-0.00013557,-0.00000526,-0.00006298,0.00005
 830,0.00006728,-0.00000754,0.00002485,0.00000972,-0.00022235,0.0000867
 5,0.00013993,-0.00042575,-0.00037873,-0.00016283,-0.00031525,0.0001546
 0,-0.00013865,-0.00040083,0.00001757,0.00004695,-0.00005779,-0.0000753
 0,-0.00004133,0.00132192,0.00000903,-0.00007302,-0.00255821,-0.0005481
 7,0.00027807,-0.00037631,0.00013187,-0.00022389,-0.53078029,-0.0278695
 4,0.08891025,0.54053962,-0.00005723,-0.00017095,0.00000480,-0.00031609
 ,0.00009129,0.00003516,0.00014751,0.00003139,0.00006318,-0.00008425,0.
 00007306,0.00000741,-0.00004072,-0.00008786,-0.00009190,0.00017432,-0.
 00006100,0.00005862,-0.00001182,0.00002825,-0.00002215,0.00000209,-0.0
 0000390,0.00000296,0.00000161,0.00000601,0.00000069,0.00000958,0.00000
 318,0.00000446,-0.00002041,-0.00005633,-0.00001254,0.00000782,0.000005
 20,-0.00000069,-0.00018599,0.00009070,0.00005235,-0.00004187,-0.000037
 30,-0.00000273,-0.00000021,0.00000610,-0.00000307,0.00001077,0.0000023
 6,-0.00000228,-0.00000252,-0.00000764,-0.00000175,-0.00000309,-0.00000
 263,0.00000085,-0.00000073,0.00000412,0.00000140,-0.00000046,-0.000002
 27,0.00000073,0.00000256,-0.00000268,-0.00000244,-0.00000213,-0.000002
 23,-0.00000212,0.00000322,-0.00000436,0.00000223,-0.00001015,-0.000003
 79,-0.00000018,0.00000853,-0.00000565,0.00000289,0.00000185,0.00001458
 ,0.00000059,0.00016517,-0.00061699,-0.00097040,-0.00013684,-0.00008560
 ,-0.00000110,-0.00015052,-0.00013938,0.00013087,0.00023250,0.00017308,
 -0.00014944,0.00001389,0.00000852,-0.00000422,0.00006627,0.00013207,-0
 .00012012,0.00000647,0.00010689,0.00001375,-0.00004450,0.00027545,-0.0
 0009588,0.00020950,0.00001321,-0.00003765,0.00004916,0.00009731,0.0000
 3876,0.00063969,-0.00100760,0.00135538,0.00024839,0.00035244,-0.001979
 85,0.00053491,0.00011606,0.00035601,-0.05056614,-0.00977657,-0.0051417
 7,0.03237710,0.00999508,-0.00002730,0.00000381,-0.00002661,0.00012550,
 0.00003733,0.00001264,-0.00006610,0.00005146,0.00001873,0.00001367,-0.
 00000255,-0.00002257,0.00000025,-0.00000460,0.00000634,0.00005657,-0.0
 0002027,-0.00000889,0.00003535,-0.00000875,0.00001957,-0.00000236,0.00
 001103,-0.00000756,-0.00000043,-0.00000215,0.00000508,0.00002120,0.000
 00126,-0.00000186,-0.00003971,-0.00000807,-0.00002757,0.00000930,0.000
 00041,0.00001862,0.00004352,0.00005687,0.00003655,-0.00000809,-0.00001
 221,0.00001278,-0.00001502,-0.00000130,0.00000245,-0.00000339,-0.00000
 185,0.00000043,-0.00000842,-0.00000186,-0.00000493,0.,-0.00000143,-0.0
 0000036,0.00000027,-0.00000170,-0.00000622,-0.00000413,0.00000035,-0.0
 0000058,0.00000090,0.00000159,-0.00000107,-0.00000575,-0.00000455,-0.0
 0000370,-0.00000124,0.00000436,0.00000077,-0.00001252,-0.00000720,-0.0
 0000055,-0.00000076,0.00000343,0.00000313,-0.00000057,0.00000653,0.000
 01290,0.00033700,-0.00089709,-0.00202246,-0.00008784,-0.00000690,-0.00
 000764,-0.00013236,0.00008510,0.00011446,0.00068178,-0.00014614,-0.000
 18217,0.00000179,-0.00001235,0.00000380,0.00015233,-0.00020516,-0.0001
 3448,-0.00026593,-0.00003079,0.00011518,0.00000893,0.00000959,-0.00007
 441,0.00015386,-0.00001134,-0.00001354,0.00002943,0.00002965,0.0000211
 7,-0.00198805,0.00219238,-0.00287272,0.00111613,-0.00335648,0.00502789
 ,-0.00087020,0.00036721,-0.00005545,0.04104548,-0.01141706,-0.05245614
 ,-0.08289362,0.00825486,0.05444810,0.00122186,0.00146469,0.00035685,0.
 00073994,-0.00084438,-0.00020473,-0.00018223,0.00010406,0.00015810,0.0
 0024223,-0.00010539,-0.00000363,0.00012311,0.00023389,0.00033027,-0.00
 080168,0.00035091,-0.00011284,-0.00013181,0.00008597,-0.00000484,-0.00
 002121,-0.00004533,0.00000335,-0.00000452,0.00000909,-0.00001841,-0.00
 009480,-0.00001115,0.00002349,0.00015999,0.00008894,0.00013572,0.00003
 809,-0.00002225,-0.00011777,0.00005494,0.00005369,-0.00016561,0.000070
 01,0.00009552,0.00004309,0.00001831,0.00002497,-0.00000009,-0.00013334
 ,-0.00001253,-0.00009554,0.00005546,0.00000709,0.00002764,0.00000989,0
 .00000906,0.00001473,-0.00000241,-0.00000328,0.00003684,0.00002159,0.0
 0000123,0.00000799,-0.00001255,-0.00000638,0.00000937,0.00002581,0.000
 02066,0.00001420,0.00000236,-0.00001871,-0.00000656,0.00001157,0.00002
 729,0.00001867,0.00000994,-0.00002244,-0.00000325,0.00001289,0.0000227
 2,-0.00004138,-0.00130312,-0.00172083,-0.00408228,0.00064751,0.0000950
 8,0.00014235,0.00132441,-0.00080149,0.00245716,0.00366714,-0.00006910,
 -0.00025219,-0.00000320,0.00007468,-0.00001307,0.00050209,-0.00046944,
 -0.00249674,-0.00553177,-0.00355801,0.00134770,-0.00276222,0.00288541,
 -0.00216935,-0.00111949,-0.00000523,0.00009480,-0.00017683,-0.00026283
 ,-0.00020480,-0.00383888,0.00240304,0.00055541,0.00571406,-0.00384896,
 -0.00110310,0.00018480,-0.00002984,0.00020247,-0.06501826,0.01458895,0
 .04225853,-0.00864282,0.01676274,0.04260054,0.07492316,-0.00001979,-0.
 00114729,-0.00071563,-0.00122650,0.00011426,-0.00024914,0.00046119,-0.
 00025864,-0.00009903,-0.00002597,0.00005884,0.00007518,0.00009863,-0.0
 0010283,-0.00001119,0.00009306,0.00029494,0.00019427,-0.00012481,0.000
 11759,-0.00008979,0.00002723,-0.00003290,0.00005075,0.00000778,0.00002
 704,-0.00001054,0.00000914,-0.00000398,0.00002281,-0.00002083,-0.00022
 577,-0.00006399,-0.00000602,-0.00000580,0.00001201,0.00004149,-0.00066
 163,-0.00010050,-0.00002435,-0.00001834,-0.00003812,0.00004715,-0.0000
 1017,0.00000864,0.00012621,0.00002503,-0.00003410,0.00001254,-0.000032
 90,0.00000193,-0.00000663,-0.00000578,0.00000033,-0.00000555,0.0000140
 4,0.00000620,0.00000607,-0.00001283,0.00000006,0.00001398,-0.00001633,
 -0.00000946,-0.00000573,-0.00000575,-0.00000587,0.00002156,-0.00001297
 ,0.00000962,-0.00001682,-0.00000863,-0.00000899,0.00002226,-0.00001484
 ,0.00001534,0.00000882,0.00003789,-0.00000851,-0.00133502,-0.00571937,
 0.00040071,-0.00073844,-0.00035292,-0.00007233,-0.00133266,-0.00010445
 ,-0.00072338,-0.00069874,-0.00028381,-0.00014750,0.00001949,-0.0000144
 7,0.00001364,0.00036724,0.00048389,0.00125995,-0.00139718,0.00390487,0
 .00302086,0.00208988,-0.00066244,0.00018486,0.00129692,0.00012643,-0.0
 0015941,0.00019619,0.00044055,0.00020510,0.00180480,-0.00162343,-0.000
 63305,-0.00265242,0.00237462,0.00113120,-0.00015968,0.00008057,0.00001
 226,0.03446562,-0.07226499,-0.16533237,-0.00388799,0.00044840,0.005044
 57,-0.02755212,0.07505431,-0.00118282,-0.00166458,-0.00125245,-0.00089
 223,0.00038106,-0.00000871,0.00017495,-0.00021199,-0.00018946,-0.00016
 909,0.00004178,-0.00000845,-0.00011216,-0.00019515,-0.00017177,0.00051
 773,-0.00013386,0.00005317,0.00005621,-0.00009558,0.00000336,0.0000353
 6,0.00002584,0.00002868,0.00001140,0.00000001,0.00000838,0.00002328,0.
 00002252,-0.00001401,-0.00004003,-0.00006280,-0.00013206,-0.00010069,0
 .00003014,0.00012144,0.00005272,-0.00017912,0.00030523,-0.00006872,-0.
 00009602,-0.00004474,-0.00000919,-0.00002822,0.00000132,0.00018652,0.0
 0002349,0.00008529,-0.00003996,-0.00000310,-0.00002374,-0.00000371,-0.
 00000233,-0.00001331,-0.00000377,-0.00000122,-0.00002858,-0.00000914,-
 0.00000014,-0.00001012,0.00001064,-0.00000495,-0.00000799,-0.00001365,
 -0.00001383,-0.00001022,-0.00000017,0.00001341,0.00000567,0.00001237,-
 0.00001609,-0.00002516,-0.00001949,0.00002037,-0.00000348,-0.00001031,
 -0.00004873,0.00002732,-0.00839327,0.00111764,-0.00201147,-0.00024586,
 -0.00006568,-0.00024884,-0.00080284,0.00087743,-0.00399292,-0.00020953
 ,-0.00038141,-0.00202141,0.00001243,-0.00003065,0.00004826,-0.00194345
 ,0.00162225,0.00247801,0.00545084,0.00542962,0.00232077,0.00255141,-0.
 00330010,0.00509782,0.00028571,-0.00005968,0.00005911,0.00012232,0.000
 19242,0.00017929,0.00231526,-0.00102559,0.00087746,-0.00296358,-0.0002
 3568,-0.00535002,0.00005540,0.00003498,-0.00023859,0.09067606,-0.15707
 331,-0.41540984,-0.00557385,-0.00174571,-0.00194910,-0.07974310,0.1568
 4259,0.42146588\\-0.00000676,0.00000177,-0.00000304,0.00000036,-0.0000
 0233,-0.00000144,0.00000232,0.00000030,0.00000296,-0.00000534,0.000000
 52,0.00000153,-0.00000126,-0.00000079,0.00000043,0.00000461,-0.0000003
 8,-0.00000025,-0.00000300,0.00000231,-0.00000676,0.00000004,0.00000155
 ,0.00000149,0.00000154,0.00000136,-0.00000016,-0.00000463,0.00000121,0
 .00000118,0.00000891,-0.00000252,0.00001016,-0.00000013,0.00000069,-0.
 00000330,-0.00000163,-0.00000210,0.00000133,-0.00000145,-0.00000013,-0
 .00000034,-0.00000071,0.00000006,0.00000046,-0.00000108,0.00000166,-0.
 00000005,-0.00000020,0.00000057,0.00000128,-0.00000027,0.00000117,0.00
 000070,0.00000146,0.00000098,0.00000041,0.00000005,0.00000172,0.000000
 43,0.00000016,0.00000202,-0.00000037,0.00000049,0.00000197,0.00000039,
 0.00000120,0.00000150,0.00000040,-0.00000019,0.00000053,0.00000171,0.0
 0000097,-0.00000007,-0.00000036,-0.00000258,-0.00000125,0.00000300,-0.
 00000107,-0.00000630,-0.00000892,0.00001006,0.00000300,-0.00000112,0.0
 0000612,-0.00000983,-0.00000424,0.00000092,-0.00000011,-0.00000094,0.0
 0000192,0.00000112,-0.00000051,-0.00000090,0.00000101,0.00000384,0.000
 00587,0.00000662,0.00000880,-0.00000151,-0.00000091,-0.00000079,-0.000
 00862,0.00000309,0.00000335,-0.00000549,-0.00000354,-0.00000704,-0.000
 00787,0.00000556,-0.00000455,0.00000570,0.00000258,-0.00000390,0.00000
 524,-0.00001016,0.00000350,0.00000550,0.00000665,0.00002144,-0.0000017
 0,-0.00000361,-0.00001275,-0.00000704,-0.00000748,-0.00000797\\\@


 THE WORLD OF CHEMICAL REACTIONS IS LIKE A STAGE,
 ON WHICH SCENE AFTER SCENE IS CEASELESSLY PLAYED.
 THE ACTORS ON IT ARE THE ELEMENTS.
   -- CLEMENS WINKLER   BER. 30,13(1897)
 (DISCOVERER OF GERMANIUM, FEB 6, 1886)
 Job cpu time:       1 days 20 hours  1 minutes 48.2 seconds.
 Elapsed time:       0 days  1 hours 34 minutes 25.5 seconds.
 File lengths (MBytes):  RWF=   1440 Int=      0 D2E=      0 Chk=     36 Scr=      8
 Normal termination of Gaussian 16 at Tue Mar  7 19:17:44 2023.
