 Entering Gaussian System, Link 0=g16
 Input=Nic3hBwB97XDaVDZStep5331TSFreq_4.gjf
 Output=Nic3hBwB97XDaVDZStep5331TSFreq_4.log
 Initial command:
 /sw/contrib/gaussian/g16/A03/g16/l1.exe "/gscratch/scrubbed/gds001/Gau-3145.inp" -scrdir="/gscratch/scrubbed/gds001/"
 Entering Link 1 = /sw/contrib/gaussian/g16/A03/g16/l1.exe PID=      3146.
  
 Copyright (c) 1988,1990,1992,1993,1995,1998,2003,2009,2016,
            Gaussian, Inc.  All Rights Reserved.
  
 This is part of the Gaussian(R) 16 program.  It is based on
 the Gaussian(R) 09 system (copyright 2009, Gaussian, Inc.),
 the Gaussian(R) 03 system (copyright 2003, Gaussian, Inc.),
 the Gaussian(R) 98 system (copyright 1998, Gaussian, Inc.),
 the Gaussian(R) 94 system (copyright 1995, Gaussian, Inc.),
 the Gaussian 92(TM) system (copyright 1992, Gaussian, Inc.),
 the Gaussian 90(TM) system (copyright 1990, Gaussian, Inc.),
 the Gaussian 88(TM) system (copyright 1988, Gaussian, Inc.),
 the Gaussian 86(TM) system (copyright 1986, Carnegie Mellon
 University), and the Gaussian 82(TM) system (copyright 1983,
 Carnegie Mellon University). Gaussian is a federally registered
 trademark of Gaussian, Inc.
  
 This software contains proprietary and confidential information,
 including trade secrets, belonging to Gaussian, Inc.
  
 This software is provided under written license and may be
 used, copied, transmitted, or stored only in accord with that
 written license.
  
 The following legend is applicable only to US Government
 contracts under FAR:
  
                    RESTRICTED RIGHTS LEGEND
  
 Use, reproduction and disclosure by the US Government is
 subject to restrictions as set forth in subparagraphs (a)
 and (c) of the Commercial Computer Software - Restricted
 Rights clause in FAR 52.227-19.
  
 Gaussian, Inc.
 340 Quinnipiac St., Bldg. 40, Wallingford CT 06492
  
  
 ---------------------------------------------------------------
 Warning -- This program may not be used in any manner that
 competes with the business of Gaussian, Inc. or will provide
 assistance to any competitor of Gaussian, Inc.  The licensee
 of this program is prohibited from giving any competitor of
 Gaussian, Inc. access to this program.  By using this program,
 the user acknowledges that Gaussian, Inc. is engaged in the
 business of creating and licensing software in the field of
 computational chemistry and represents and warrants to the
 licensee that it is not a competitor of Gaussian, Inc. and that
 it will not use this program in any manner prohibited above.
 ---------------------------------------------------------------
  

 Cite this work as:
 Gaussian 16, Revision A.03,
 M. J. Frisch, G. W. Trucks, H. B. Schlegel, G. E. Scuseria, 
 M. A. Robb, J. R. Cheeseman, G. Scalmani, V. Barone, 
 G. A. Petersson, H. Nakatsuji, X. Li, M. Caricato, A. V. Marenich, 
 J. Bloino, B. G. Janesko, R. Gomperts, B. Mennucci, H. P. Hratchian, 
 J. V. Ortiz, A. F. Izmaylov, J. L. Sonnenberg, D. Williams-Young, 
 F. Ding, F. Lipparini, F. Egidi, J. Goings, B. Peng, A. Petrone, 
 T. Henderson, D. Ranasinghe, V. G. Zakrzewski, J. Gao, N. Rega, 
 G. Zheng, W. Liang, M. Hada, M. Ehara, K. Toyota, R. Fukuda, 
 J. Hasegawa, M. Ishida, T. Nakajima, Y. Honda, O. Kitao, H. Nakai, 
 T. Vreven, K. Throssell, J. A. Montgomery, Jr., J. E. Peralta, 
 F. Ogliaro, M. J. Bearpark, J. J. Heyd, E. N. Brothers, K. N. Kudin, 
 V. N. Staroverov, T. A. Keith, R. Kobayashi, J. Normand, 
 K. Raghavachari, A. P. Rendell, J. C. Burant, S. S. Iyengar, 
 J. Tomasi, M. Cossi, J. M. Millam, M. Klene, C. Adamo, R. Cammi, 
 J. W. Ochterski, R. L. Martin, K. Morokuma, O. Farkas, 
 J. B. Foresman, and D. J. Fox, Gaussian, Inc., Wallingford CT, 2016.
 
 ******************************************
 Gaussian 16:  ES64L-G16RevA.03 25-Dec-2016
                 5-Nov-2022 
 ******************************************
 %nprocshared=28
 Will use up to   28 processors via shared memory.
 %mem=41GB
 -------------------------------------------------------------------
 # wB97XD/aug-cc-pVDZ Opt=(TS,CalcAll,MaxStep=1,MaxCycles=1000) freq
 -------------------------------------------------------------------
 1/5=1,6=1000,8=1,10=4,18=20,26=3,38=1/1,3;
 2/9=110,12=2,17=6,18=5,40=1/2;
 3/5=16,7=10,11=2,25=1,30=1,71=2,74=-58,140=1/1,2,3;
 4//1;
 5/5=2,38=5/2;
 8/6=4,10=90,11=11/1;
 11/6=1,8=1,9=11,15=111,16=1/1,2,10;
 10/6=1/2;
 6/7=2,8=2,9=2,10=2,18=1,28=1/1;
 7/10=1,25=1/1,2,3,16;
 1/5=1,6=1000,8=1,10=4,18=20,26=3/3(3);
 2/9=110/2;
 7/8=1,9=1,25=1,44=-1/16;
 99//99;
 2/9=110/2;
 3/5=16,7=10,11=2,25=1,30=1,71=2,74=-58,140=1/1,2,3;
 4/5=5,16=3,69=1/1;
 5/5=2,38=5/2;
 8/6=4,10=90,11=11/1;
 11/6=1,8=1,9=11,15=111,16=1/1,2,10;
 10/6=1/2;
 7/10=1,25=1/1,2,3,16;
 1/5=1,6=1000,8=1,10=4,18=20,26=3/3(-8);
 2/9=110/2;
 6/7=2,8=2,9=2,10=2,18=1,19=2,28=1/1;
 7/8=1,9=1,25=1,44=-1/16;
 99//99;
 ----
 blah
 ----
 Symbolic Z-matrix:
 Charge =  1 Multiplicity = 1
 N                     2.33064  -0.66891  -0.38543 
 C                     2.73131  -1.86779   0.05356 
 C                     1.83182  -2.86419   0.4157 
 C                     0.4682   -2.59338   0.33792 
 C                     0.03623  -1.34828  -0.11959 
 C                     1.0205   -0.42968  -0.48101 
 C                    -1.42832  -0.99805  -0.20921 
 C                    -1.94469  -0.59832  -1.60046 
 C                    -3.15577   0.32243  -1.31575 
 C                    -3.18375   0.46531   0.21262 
 N                    -1.79882   0.16762   0.63289 
 C                    -1.67748  -0.08623   2.06965 
 H                     3.80738  -2.02805   0.11792 
 H                     2.19583  -3.829     0.7633 
 H                    -0.25856  -3.35097   0.6338 
 H                     0.74569   0.55403  -0.86389 
 H                    -2.00735  -1.86667   0.15215 
 H                    -2.20783  -1.48503  -2.18553 
 H                    -1.16557  -0.0625   -2.15498 
 H                    -4.09507  -0.09985  -1.68559 
 H                    -3.02514   1.29608  -1.80138 
 H                    -3.87039  -0.26721   0.66733 
 H                    -3.4769    1.46174   0.56534 
 H                    -2.29653  -0.94443   2.37673 
 H                    -2.00399   0.80101   2.62375 
 H                    -0.63102  -0.29233   2.32225 
 O                     3.45262   1.71957  -0.52366 
 O                    -0.57612   2.36072   0.15275 
 O                     1.68824   3.14299   0.43959 
 H                     3.92102   1.95348  -1.32925 
 H                    -1.21124   3.02216  -0.13103 
 H                     1.91703   3.36557   1.34806 
 H                     3.18518   0.74908  -0.56224 
 H                     2.44742   2.55368   0.00058 
 H                     0.65551   2.76809   0.33938 
 H                    -1.05435   1.41296   0.34099 
 
 Add virtual bond connecting atoms H35        and O28        Dist= 2.48D+00.
 Add virtual bond connecting atoms H34        and O27        Dist= 2.66D+00.
 Add virtual bond connecting atoms H36        and N11        Dist= 2.80D+00.

 GradGradGradGradGradGradGradGradGradGradGradGradGradGradGradGradGradGrad
 Berny optimization.
 Initialization pass.
                           ----------------------------
                           !    Initial Parameters    !
                           ! (Angstroms and Degrees)  !
 --------------------------                            --------------------------
 ! Name  Definition              Value          Derivative Info.                !
 --------------------------------------------------------------------------------
 ! R1    R(1,2)                  1.3381         calculate D2E/DX2 analytically  !
 ! R2    R(1,6)                  1.3352         calculate D2E/DX2 analytically  !
 ! R3    R(2,3)                  1.3903         calculate D2E/DX2 analytically  !
 ! R4    R(2,13)                 1.0898         calculate D2E/DX2 analytically  !
 ! R5    R(3,4)                  1.3924         calculate D2E/DX2 analytically  !
 ! R6    R(3,14)                 1.0882         calculate D2E/DX2 analytically  !
 ! R7    R(4,5)                  1.3951         calculate D2E/DX2 analytically  !
 ! R8    R(4,15)                 1.0907         calculate D2E/DX2 analytically  !
 ! R9    R(5,6)                  1.394          calculate D2E/DX2 analytically  !
 ! R10   R(5,7)                  1.5085         calculate D2E/DX2 analytically  !
 ! R11   R(6,16)                 1.0908         calculate D2E/DX2 analytically  !
 ! R12   R(7,8)                  1.5369         calculate D2E/DX2 analytically  !
 ! R13   R(7,11)                 1.485          calculate D2E/DX2 analytically  !
 ! R14   R(7,17)                 1.1047         calculate D2E/DX2 analytically  !
 ! R15   R(8,9)                  1.5478         calculate D2E/DX2 analytically  !
 ! R16   R(8,18)                 1.0944         calculate D2E/DX2 analytically  !
 ! R17   R(8,19)                 1.0962         calculate D2E/DX2 analytically  !
 ! R18   R(9,10)                 1.5353         calculate D2E/DX2 analytically  !
 ! R19   R(9,20)                 1.0942         calculate D2E/DX2 analytically  !
 ! R20   R(9,21)                 1.0959         calculate D2E/DX2 analytically  !
 ! R21   R(10,11)                1.4776         calculate D2E/DX2 analytically  !
 ! R22   R(10,22)                1.1022         calculate D2E/DX2 analytically  !
 ! R23   R(10,23)                1.0969         calculate D2E/DX2 analytically  !
 ! R24   R(11,12)                1.464          calculate D2E/DX2 analytically  !
 ! R25   R(11,36)                1.48           calculate D2E/DX2 analytically  !
 ! R26   R(12,24)                1.1018         calculate D2E/DX2 analytically  !
 ! R27   R(12,25)                1.0958         calculate D2E/DX2 analytically  !
 ! R28   R(12,26)                1.0961         calculate D2E/DX2 analytically  !
 ! R29   R(27,30)                0.9608         calculate D2E/DX2 analytically  !
 ! R30   R(27,33)                1.0074         calculate D2E/DX2 analytically  !
 ! R31   R(27,34)                1.4075         calculate D2E/DX2 analytically  !
 ! R32   R(28,31)                0.9599         calculate D2E/DX2 analytically  !
 ! R33   R(28,35)                1.3106         calculate D2E/DX2 analytically  !
 ! R34   R(28,36)                1.0781         calculate D2E/DX2 analytically  !
 ! R35   R(29,32)                0.9629         calculate D2E/DX2 analytically  !
 ! R36   R(29,34)                1.0566         calculate D2E/DX2 analytically  !
 ! R37   R(29,35)                1.1032         calculate D2E/DX2 analytically  !
 ! A1    A(2,1,6)              118.5424         calculate D2E/DX2 analytically  !
 ! A2    A(1,2,3)              122.2639         calculate D2E/DX2 analytically  !
 ! A3    A(1,2,13)             116.5363         calculate D2E/DX2 analytically  !
 ! A4    A(3,2,13)             121.1996         calculate D2E/DX2 analytically  !
 ! A5    A(2,3,4)              118.6626         calculate D2E/DX2 analytically  !
 ! A6    A(2,3,14)             120.1448         calculate D2E/DX2 analytically  !
 ! A7    A(4,3,14)             121.1884         calculate D2E/DX2 analytically  !
 ! A8    A(3,4,5)              119.6783         calculate D2E/DX2 analytically  !
 ! A9    A(3,4,15)             120.1519         calculate D2E/DX2 analytically  !
 ! A10   A(5,4,15)             120.1697         calculate D2E/DX2 analytically  !
 ! A11   A(4,5,6)              117.0348         calculate D2E/DX2 analytically  !
 ! A12   A(4,5,7)              121.824          calculate D2E/DX2 analytically  !
 ! A13   A(6,5,7)              121.1384         calculate D2E/DX2 analytically  !
 ! A14   A(1,6,5)              123.7923         calculate D2E/DX2 analytically  !
 ! A15   A(1,6,16)             115.7161         calculate D2E/DX2 analytically  !
 ! A16   A(5,6,16)             120.4909         calculate D2E/DX2 analytically  !
 ! A17   A(5,7,8)              116.1272         calculate D2E/DX2 analytically  !
 ! A18   A(5,7,11)             113.0029         calculate D2E/DX2 analytically  !
 ! A19   A(5,7,17)             107.8723         calculate D2E/DX2 analytically  !
 ! A20   A(8,7,11)             103.0236         calculate D2E/DX2 analytically  !
 ! A21   A(8,7,17)             108.9361         calculate D2E/DX2 analytically  !
 ! A22   A(11,7,17)            107.5142         calculate D2E/DX2 analytically  !
 ! A23   A(7,8,9)              104.5432         calculate D2E/DX2 analytically  !
 ! A24   A(7,8,18)             110.7313         calculate D2E/DX2 analytically  !
 ! A25   A(7,8,19)             110.2588         calculate D2E/DX2 analytically  !
 ! A26   A(9,8,18)             113.0904         calculate D2E/DX2 analytically  !
 ! A27   A(9,8,19)             111.0028         calculate D2E/DX2 analytically  !
 ! A28   A(18,8,19)            107.2465         calculate D2E/DX2 analytically  !
 ! A29   A(8,9,10)             104.6397         calculate D2E/DX2 analytically  !
 ! A30   A(8,9,20)             112.329          calculate D2E/DX2 analytically  !
 ! A31   A(8,9,21)             110.7176         calculate D2E/DX2 analytically  !
 ! A32   A(10,9,20)            110.8996         calculate D2E/DX2 analytically  !
 ! A33   A(10,9,21)            111.1397         calculate D2E/DX2 analytically  !
 ! A34   A(20,9,21)            107.1829         calculate D2E/DX2 analytically  !
 ! A35   A(9,10,11)            104.3189         calculate D2E/DX2 analytically  !
 ! A36   A(9,10,22)            111.1125         calculate D2E/DX2 analytically  !
 ! A37   A(9,10,23)            114.1742         calculate D2E/DX2 analytically  !
 ! A38   A(11,10,22)           109.4312         calculate D2E/DX2 analytically  !
 ! A39   A(11,10,23)           110.0014         calculate D2E/DX2 analytically  !
 ! A40   A(22,10,23)           107.7321         calculate D2E/DX2 analytically  !
 ! A41   A(7,11,10)            103.3384         calculate D2E/DX2 analytically  !
 ! A42   A(7,11,12)            113.5612         calculate D2E/DX2 analytically  !
 ! A43   A(7,11,36)            115.035          calculate D2E/DX2 analytically  !
 ! A44   A(10,11,12)           113.0629         calculate D2E/DX2 analytically  !
 ! A45   A(10,11,36)           104.2322         calculate D2E/DX2 analytically  !
 ! A46   A(12,11,36)           107.3235         calculate D2E/DX2 analytically  !
 ! A47   A(11,12,24)           111.2225         calculate D2E/DX2 analytically  !
 ! A48   A(11,12,25)           109.3382         calculate D2E/DX2 analytically  !
 ! A49   A(11,12,26)           109.7486         calculate D2E/DX2 analytically  !
 ! A50   A(24,12,25)           108.8016         calculate D2E/DX2 analytically  !
 ! A51   A(24,12,26)           109.0093         calculate D2E/DX2 analytically  !
 ! A52   A(25,12,26)           108.6748         calculate D2E/DX2 analytically  !
 ! A53   A(30,27,33)           109.3807         calculate D2E/DX2 analytically  !
 ! A54   A(30,27,34)           121.0782         calculate D2E/DX2 analytically  !
 ! A55   A(33,27,34)           113.3027         calculate D2E/DX2 analytically  !
 ! A56   A(31,28,35)           116.7243         calculate D2E/DX2 analytically  !
 ! A57   A(31,28,36)           111.3383         calculate D2E/DX2 analytically  !
 ! A58   A(35,28,36)           131.6985         calculate D2E/DX2 analytically  !
 ! A59   A(32,29,34)           110.4998         calculate D2E/DX2 analytically  !
 ! A60   A(32,29,35)           112.7471         calculate D2E/DX2 analytically  !
 ! A61   A(34,29,35)           116.4444         calculate D2E/DX2 analytically  !
 ! A62   L(27,34,29,4,-1)      177.8266         calculate D2E/DX2 analytically  !
 ! A63   L(28,35,29,1,-1)      181.0118         calculate D2E/DX2 analytically  !
 ! A64   L(11,36,28,1,-1)      184.1995         calculate D2E/DX2 analytically  !
 ! A65   L(27,34,29,4,-2)      177.5936         calculate D2E/DX2 analytically  !
 ! A66   L(28,35,29,1,-2)      176.7424         calculate D2E/DX2 analytically  !
 ! A67   L(11,36,28,1,-2)      180.5513         calculate D2E/DX2 analytically  !
 ! D1    D(6,1,2,3)             -0.2422         calculate D2E/DX2 analytically  !
 ! D2    D(6,1,2,13)           179.9468         calculate D2E/DX2 analytically  !
 ! D3    D(2,1,6,5)              1.5544         calculate D2E/DX2 analytically  !
 ! D4    D(2,1,6,16)          -178.738          calculate D2E/DX2 analytically  !
 ! D5    D(1,2,3,4)             -1.0654         calculate D2E/DX2 analytically  !
 ! D6    D(1,2,3,14)           179.6705         calculate D2E/DX2 analytically  !
 ! D7    D(13,2,3,4)           178.737          calculate D2E/DX2 analytically  !
 ! D8    D(13,2,3,14)           -0.5271         calculate D2E/DX2 analytically  !
 ! D9    D(2,3,4,5)              1.1133         calculate D2E/DX2 analytically  !
 ! D10   D(2,3,4,15)          -178.8545         calculate D2E/DX2 analytically  !
 ! D11   D(14,3,4,5)          -179.6306         calculate D2E/DX2 analytically  !
 ! D12   D(14,3,4,15)            0.4016         calculate D2E/DX2 analytically  !
 ! D13   D(3,4,5,6)              0.0683         calculate D2E/DX2 analytically  !
 ! D14   D(3,4,5,7)           -179.3269         calculate D2E/DX2 analytically  !
 ! D15   D(15,4,5,6)          -179.964          calculate D2E/DX2 analytically  !
 ! D16   D(15,4,5,7)             0.6408         calculate D2E/DX2 analytically  !
 ! D17   D(4,5,6,1)             -1.4592         calculate D2E/DX2 analytically  !
 ! D18   D(4,5,6,16)           178.8465         calculate D2E/DX2 analytically  !
 ! D19   D(7,5,6,1)            177.9405         calculate D2E/DX2 analytically  !
 ! D20   D(7,5,6,16)            -1.7539         calculate D2E/DX2 analytically  !
 ! D21   D(4,5,7,8)           -121.698          calculate D2E/DX2 analytically  !
 ! D22   D(4,5,7,11)           119.5573         calculate D2E/DX2 analytically  !
 ! D23   D(4,5,7,17)             0.8451         calculate D2E/DX2 analytically  !
 ! D24   D(6,5,7,8)             58.9314         calculate D2E/DX2 analytically  !
 ! D25   D(6,5,7,11)           -59.8133         calculate D2E/DX2 analytically  !
 ! D26   D(6,5,7,17)          -178.5255         calculate D2E/DX2 analytically  !
 ! D27   D(5,7,8,9)           -153.284          calculate D2E/DX2 analytically  !
 ! D28   D(5,7,8,18)            84.6155         calculate D2E/DX2 analytically  !
 ! D29   D(5,7,8,19)           -33.9141         calculate D2E/DX2 analytically  !
 ! D30   D(11,7,8,9)           -29.2149         calculate D2E/DX2 analytically  !
 ! D31   D(11,7,8,18)         -151.3154         calculate D2E/DX2 analytically  !
 ! D32   D(11,7,8,19)           90.1549         calculate D2E/DX2 analytically  !
 ! D33   D(17,7,8,9)            84.7337         calculate D2E/DX2 analytically  !
 ! D34   D(17,7,8,18)          -37.3668         calculate D2E/DX2 analytically  !
 ! D35   D(17,7,8,19)         -155.8965         calculate D2E/DX2 analytically  !
 ! D36   D(5,7,11,10)          170.5484         calculate D2E/DX2 analytically  !
 ! D37   D(5,7,11,12)          -66.59           calculate D2E/DX2 analytically  !
 ! D38   D(5,7,11,36)           57.6184         calculate D2E/DX2 analytically  !
 ! D39   D(8,7,11,10)           44.4459         calculate D2E/DX2 analytically  !
 ! D40   D(8,7,11,12)          167.3075         calculate D2E/DX2 analytically  !
 ! D41   D(8,7,11,36)          -68.484          calculate D2E/DX2 analytically  !
 ! D42   D(17,7,11,10)         -70.5318         calculate D2E/DX2 analytically  !
 ! D43   D(17,7,11,12)          52.3298         calculate D2E/DX2 analytically  !
 ! D44   D(17,7,11,36)         176.5383         calculate D2E/DX2 analytically  !
 ! D45   D(7,8,9,10)             3.9554         calculate D2E/DX2 analytically  !
 ! D46   D(7,8,9,20)          -116.4341         calculate D2E/DX2 analytically  !
 ! D47   D(7,8,9,21)           123.7778         calculate D2E/DX2 analytically  !
 ! D48   D(18,8,9,10)          124.4964         calculate D2E/DX2 analytically  !
 ! D49   D(18,8,9,20)            4.1069         calculate D2E/DX2 analytically  !
 ! D50   D(18,8,9,21)         -115.6812         calculate D2E/DX2 analytically  !
 ! D51   D(19,8,9,10)         -114.9116         calculate D2E/DX2 analytically  !
 ! D52   D(19,8,9,20)          124.6989         calculate D2E/DX2 analytically  !
 ! D53   D(19,8,9,21)            4.9108         calculate D2E/DX2 analytically  !
 ! D54   D(8,9,10,11)           22.9233         calculate D2E/DX2 analytically  !
 ! D55   D(8,9,10,22)          -94.8907         calculate D2E/DX2 analytically  !
 ! D56   D(8,9,10,23)          143.0238         calculate D2E/DX2 analytically  !
 ! D57   D(20,9,10,11)         144.2606         calculate D2E/DX2 analytically  !
 ! D58   D(20,9,10,22)          26.4465         calculate D2E/DX2 analytically  !
 ! D59   D(20,9,10,23)         -95.639          calculate D2E/DX2 analytically  !
 ! D60   D(21,9,10,11)         -96.6159         calculate D2E/DX2 analytically  !
 ! D61   D(21,9,10,22)         145.5701         calculate D2E/DX2 analytically  !
 ! D62   D(21,9,10,23)          23.4846         calculate D2E/DX2 analytically  !
 ! D63   D(9,10,11,7)          -42.1324         calculate D2E/DX2 analytically  !
 ! D64   D(9,10,11,12)        -165.3244         calculate D2E/DX2 analytically  !
 ! D65   D(9,10,11,36)          78.4522         calculate D2E/DX2 analytically  !
 ! D66   D(22,10,11,7)          76.8307         calculate D2E/DX2 analytically  !
 ! D67   D(22,10,11,12)        -46.3613         calculate D2E/DX2 analytically  !
 ! D68   D(22,10,11,36)       -162.5847         calculate D2E/DX2 analytically  !
 ! D69   D(23,10,11,7)        -164.9987         calculate D2E/DX2 analytically  !
 ! D70   D(23,10,11,12)         71.8093         calculate D2E/DX2 analytically  !
 ! D71   D(23,10,11,36)        -44.4141         calculate D2E/DX2 analytically  !
 ! D72   D(7,11,12,24)         -57.5981         calculate D2E/DX2 analytically  !
 ! D73   D(7,11,12,25)        -177.7764         calculate D2E/DX2 analytically  !
 ! D74   D(7,11,12,26)          63.1102         calculate D2E/DX2 analytically  !
 ! D75   D(10,11,12,24)         59.7386         calculate D2E/DX2 analytically  !
 ! D76   D(10,11,12,25)        -60.4397         calculate D2E/DX2 analytically  !
 ! D77   D(10,11,12,26)       -179.5531         calculate D2E/DX2 analytically  !
 ! D78   D(36,11,12,24)        174.1139         calculate D2E/DX2 analytically  !
 ! D79   D(36,11,12,25)         53.9356         calculate D2E/DX2 analytically  !
 ! D80   D(36,11,12,26)        -65.1779         calculate D2E/DX2 analytically  !
 ! D81   D(7,11,28,31)         117.5593         calculate D2E/DX2 analytically  !
 ! D82   D(7,11,28,35)         -70.3096         calculate D2E/DX2 analytically  !
 ! D83   D(10,11,28,31)          5.3145         calculate D2E/DX2 analytically  !
 ! D84   D(10,11,28,35)        177.4457         calculate D2E/DX2 analytically  !
 ! D85   D(12,11,28,31)       -114.0368         calculate D2E/DX2 analytically  !
 ! D86   D(12,11,28,35)         58.0944         calculate D2E/DX2 analytically  !
 ! D87   D(30,27,29,32)       -123.6166         calculate D2E/DX2 analytically  !
 ! D88   D(30,27,29,35)        107.4672         calculate D2E/DX2 analytically  !
 ! D89   D(33,27,29,32)        102.9315         calculate D2E/DX2 analytically  !
 ! D90   D(33,27,29,35)        -25.9846         calculate D2E/DX2 analytically  !
 ! D91   D(31,28,29,32)         96.9445         calculate D2E/DX2 analytically  !
 ! D92   D(31,28,29,34)       -132.4066         calculate D2E/DX2 analytically  !
 ! D93   D(36,28,29,32)        -78.3269         calculate D2E/DX2 analytically  !
 ! D94   D(36,28,29,34)         52.3219         calculate D2E/DX2 analytically  !
 --------------------------------------------------------------------------------
 Trust Radius=1.00D-02 FncErr=1.00D-07 GrdErr=1.00D-06 EigMax=2.50D+02 EigMin=1.00D-04
 Number of steps in this run=    216 maximum allowed number of steps=    216.
 Search for a saddle point of order  1.
 GradGradGradGradGradGradGradGradGradGradGradGradGradGradGradGradGradGrad

                          Input orientation:                          
 ---------------------------------------------------------------------
 Center     Atomic      Atomic             Coordinates (Angstroms)
 Number     Number       Type             X           Y           Z
 ---------------------------------------------------------------------
      1          7           0        2.330638   -0.668905   -0.385426
      2          6           0        2.731309   -1.867792    0.053563
      3          6           0        1.831822   -2.864185    0.415695
      4          6           0        0.468197   -2.593381    0.337923
      5          6           0        0.036230   -1.348276   -0.119587
      6          6           0        1.020499   -0.429676   -0.481007
      7          6           0       -1.428318   -0.998052   -0.209212
      8          6           0       -1.944691   -0.598322   -1.600461
      9          6           0       -3.155772    0.322433   -1.315752
     10          6           0       -3.183751    0.465305    0.212619
     11          7           0       -1.798817    0.167616    0.632892
     12          6           0       -1.677479   -0.086228    2.069650
     13          1           0        3.807376   -2.028052    0.117917
     14          1           0        2.195830   -3.828997    0.763304
     15          1           0       -0.258560   -3.350967    0.633802
     16          1           0        0.745689    0.554030   -0.863889
     17          1           0       -2.007354   -1.866672    0.152149
     18          1           0       -2.207831   -1.485034   -2.185534
     19          1           0       -1.165573   -0.062504   -2.154985
     20          1           0       -4.095070   -0.099846   -1.685592
     21          1           0       -3.025138    1.296083   -1.801377
     22          1           0       -3.870394   -0.267209    0.667330
     23          1           0       -3.476904    1.461740    0.565342
     24          1           0       -2.296534   -0.944425    2.376734
     25          1           0       -2.003994    0.801007    2.623746
     26          1           0       -0.631024   -0.292333    2.322247
     27          8           0        3.452616    1.719570   -0.523655
     28          8           0       -0.576122    2.360721    0.152753
     29          8           0        1.688239    3.142989    0.439587
     30          1           0        3.921024    1.953483   -1.329253
     31          1           0       -1.211235    3.022160   -0.131034
     32          1           0        1.917034    3.365571    1.348060
     33          1           0        3.185184    0.749077   -0.562243
     34          1           0        2.447417    2.553680    0.000581
     35          1           0        0.655511    2.768085    0.339384
     36          1           0       -1.054352    1.412959    0.340989
 ---------------------------------------------------------------------
                    Distance matrix (angstroms):
                    1          2          3          4          5
     1  N    0.000000
     2  C    1.338125   0.000000
     3  C    2.389533   1.390329   0.000000
     4  C    2.774081   2.393536   1.392428   0.000000
     5  C    2.407597   2.750151   2.410116   1.395062   0.000000
     6  C    1.335227   2.298002   2.718300   2.378509   1.394000
     7  C    3.777451   4.257698   3.808080   2.537952   1.508506
     8  C    4.445192   5.119797   4.843663   3.682339   2.584466
     9  C    5.652340   6.428828   6.166728   4.936574   3.796177
    10  C    5.661499   6.360548   6.023514   4.765290   3.710487
    11  N    4.334644   5.000055   4.735032   3.584615   2.496307
    12  C    4.736234   5.164880   4.771562   3.726744   3.053248
    13  H    2.069152   1.089837   2.165780   3.393835   3.839277
    14  H    3.365106   2.153322   1.088208   2.166198   3.405488
    15  H    3.864742   3.387595   2.157365   1.090714   2.159923
    16  H    2.058291   3.263377   3.808046   3.380466   2.162426
    17  H    4.532307   4.739689   3.975394   2.586691   2.125749
    18  H    4.950167   5.436466   4.998724   3.841535   3.053301
    19  H    3.965167   4.829331   4.841713   3.910132   2.690796
    20  H    6.580576   7.262902   6.869136   5.579940   4.591142
    21  H    5.877962   6.825510   6.768552   5.648710   4.380985
    22  H    6.302575   6.820635   6.270795   4.933858   4.129123
    23  H    6.258686   7.063258   6.849715   5.662115   4.550542
    24  H    5.395939   5.615063   4.957265   3.810452   3.440422
    25  H    5.477663   6.012605   5.746530   4.781065   4.038293
    26  H    4.030477   4.351354   4.039180   3.231200   2.742772
    27  O    2.642490   3.704407   4.951784   5.315131   4.609408
    28  O    4.232910   5.369289   5.759078   5.066361   3.769059
    29  O    3.952703   5.132732   6.008937   5.865559   4.818015
    30  H    3.208903   4.234353   5.533492   5.947727   5.239898
    31  H    5.121869   6.284056   6.648922   5.880027   4.544998
    32  H    4.410560   5.452234   6.299716   6.215192   5.283159
    33  H    1.664988   2.726394   3.980404   4.400493   3.809297
    34  H    3.247721   4.430893   5.468504   5.524794   4.588412
    35  H    3.891568   5.087434   5.754302   5.364737   4.187910
    36  H    4.039801   5.017686   5.160382   4.285898   3.004317
                    6          7          8          9         10
     6  C    0.000000
     7  C    2.528563   0.000000
     8  C    3.173952   1.536880   0.000000
     9  C    4.324778   2.439715   1.547762   0.000000
    10  C    4.354059   2.323984   2.440047   1.535289   0.000000
    11  N    3.089672   1.484988   2.365546   2.379603   1.477596
    12  C    3.728658   2.467127   3.715287   3.716625   2.453897
    13  H    3.268057   5.346064   6.171161   7.487698   7.423049
    14  H    3.805929   4.700477   5.759215   7.084948   6.905373
    15  H    3.378274   2.759568   3.925815   5.068379   4.826807
    16  H    1.090778   2.750249   3.018045   3.934363   4.075198
    17  H    3.410827   1.104701   2.164320   2.875027   2.612601
    18  H    3.800172   2.179596   1.094446   2.218569   3.241509
    19  H    2.777756   2.174929   1.096186   2.193942   3.155499
    20  H    5.265820   3.177741   2.209039   1.094249   2.180161
    21  H    4.592254   3.216812   2.190092   1.095852   2.184383
    22  H    5.026520   2.695588   2.993467   2.188830   1.102188
    23  H    4.989883   3.293511   3.358904   2.222535   1.096921
    24  H    4.408442   2.728331   4.007700   3.997208   2.730913
    25  H    4.505733   3.404947   4.450344   4.132223   2.705191
    26  H    3.256474   2.746271   4.148131   4.470719   3.397199
    27  O    3.245962   5.595343   5.971855   6.800750   6.793868
    28  O    3.276761   3.484051   3.701713   3.600794   3.224270
    29  O    3.749307   5.223226   5.599766   5.873772   5.563973
    30  H    3.848638   6.211402   6.402490   7.262338   7.420908
    31  H    4.125323   4.026828   3.975558   3.531757   3.247526
    32  H    4.307338   5.714690   6.270498   6.487676   5.976519
    33  H    2.466155   4.945856   5.404535   6.399807   6.422170
    34  H    3.341921   5.261191   5.638179   6.173080   6.009686
    35  H    3.321435   4.339019   4.675120   4.821469   4.478705
    36  H    2.894130   2.501109   2.933800   2.889637   2.334281
                   11         12         13         14         15
    11  N    0.000000
    12  C    1.464047   0.000000
    13  H    6.042810   6.137066   0.000000
    14  H    5.652179   5.542326   2.501401   0.000000
    15  H    3.840940   3.838426   4.306748   2.503860   0.000000
    16  H    2.977277   3.858410   4.123714   4.895058   4.301232
    17  H    2.100697   2.637349   5.817070   4.678780   2.343801
    18  H    3.292730   4.510490   6.464013   5.795001   3.902566
    19  H    2.868137   4.255602   5.810308   5.831116   4.406131
    20  H    3.274093   4.466181   8.331823   7.712268   5.537886
    21  H    2.950079   4.325716   7.836888   7.752583   5.931199
    22  H    2.117000   2.609240   7.896238   7.035241   4.749319
    23  H    2.120211   2.810174   8.089473   7.759575   5.790041
    24  H    2.127285   1.101831   6.598047   5.577208   3.603137
    25  H    2.099234   1.095819   6.932155   6.522017   4.923952
    26  H    2.104570   1.096062   5.250827   4.788465   3.513519
    27  O    5.596759   6.025281   3.818657   5.832870   6.389278
    28  O    2.556409   3.297733   6.203031   6.809486   5.740700
    29  O    4.588003   4.940952   5.597667   6.997930   6.782272
    30  H    6.305229   6.859752   4.237905   6.386874   7.032759
    31  H    3.012849   3.836987   7.124119   7.703654   6.489169
    32  H    4.954385   5.035487   5.846179   7.223675   7.096144
    33  H    5.158169   5.591966   2.926121   4.867716   5.486370
    34  H    4.911580   5.316477   4.780745   6.433009   6.525959
    35  H    3.587800   4.072317   5.743364   6.787767   6.193949
    36  H    1.479971   2.371522   5.960429   6.182244   4.838803
                   16         17         18         19         20
    16  H    0.000000
    17  H    3.804126   0.000000
    18  H    3.824632   2.377099   0.000000
    19  H    2.387460   3.047373   1.763754   0.000000
    20  H    4.953352   3.295076   2.393817   2.967099   0.000000
    21  H    3.955839   3.854240   2.924069   2.329974   1.762606
    22  H    4.932270   2.508906   3.519382   3.914514   2.369542
    23  H    4.549388   3.661780   4.226268   3.881462   2.808449
    24  H    4.690642   2.425478   4.595043   4.753245   4.522227
    25  H    4.448073   3.636663   5.328856   4.927968   4.873862
    26  H    3.572553   3.013661   4.922291   4.514883   5.300890
    27  O    2.966765   6.567276   6.713568   5.211976   7.850346
    28  O    2.458633   4.463102   4.787472   3.397812   4.670856
    29  O    3.047976   6.231912   6.594636   5.015100   6.962688
    30  H    3.501112   7.206511   7.079511   5.533489   8.282566
    31  H    3.233929   4.961318   5.052620   3.689663   4.525492
    32  H    3.764244   6.648864   7.282113   5.790120   7.573477
    33  H    2.465800   5.857896   6.058955   4.703677   7.415166
    34  H    2.764378   6.277537   6.539239   4.954249   7.258686
    35  H    2.521515   5.348540   5.715152   4.189327   5.907078
    36  H    2.330158   3.420505   4.014000   2.901594   3.954943
                   21         22         23         24         25
    21  H    0.000000
    22  H    3.041850   0.000000
    23  H    2.415138   1.776091   0.000000
    24  H    4.796598   2.420272   3.234818   0.000000
    25  H    4.568320   2.907249   2.615924   1.786932   0.000000
    26  H    5.025845   3.637705   3.776575   1.789446   1.780826
    27  O    6.616133   7.680639   7.019305   6.968633   6.365884
    28  O    3.309042   4.245354   3.064789   4.339343   3.252281
    29  O    5.536145   6.525314   5.433334   6.028093   4.887537
    30  H    6.993157   8.344100   7.652492   7.796809   7.215278
    31  H    3.009922   4.304470   2.837800   4.816697   3.626403
    32  H    6.215046   6.866936   5.773369   6.114605   4.855803
    33  H    6.356317   7.233662   6.794318   6.446299   6.089400
    34  H    5.897242   6.951022   6.050526   6.355149   5.455998
    35  H    4.505200   5.459338   4.339867   5.162179   4.020034
    36  H    2.913312   3.295384   2.433407   3.353287   2.547015
                   26         27         28         29         30
    26  H    0.000000
    27  O    5.368708   0.000000
    28  O    3.427596   4.135134   0.000000
    29  O    4.552453   2.463125   2.412788   0.000000
    30  H    6.252862   0.960786   4.752526   3.086916   0.000000
    31  H    4.164264   4.858230   0.959899   2.957559   5.377535
    32  H    4.563102   2.927567   2.941821   0.962919   3.630148
    33  H    4.895739   1.007405   4.154039   2.995884   1.606349
    34  H    4.792361   1.407476   3.033509   1.056581   2.073695
    35  H    3.866921   3.109343   1.310609   1.103232   3.756528
    36  H    2.648133   4.599389   1.078142   3.244153   5.276006
                   31         32         33         34         35
    31  H    0.000000
    32  H    3.477315   0.000000
    33  H    4.968033   3.479009   0.000000
    34  H    3.690871   1.660173   2.029203   0.000000
    35  H    1.941800   1.722166   3.359847   1.836215   0.000000
    36  H    1.684324   3.695405   4.385229   3.698582   2.181743
                   36
    36  H    0.000000
 Stoichiometry    C10H21N2O3(1+)
 Framework group  C1[X(C10H21N2O3)]
 Deg. of freedom   102
 Full point group                 C1      NOp   1
 Largest Abelian subgroup         C1      NOp   1
 Largest concise Abelian subgroup C1      NOp   1
                         Standard orientation:                         
 ---------------------------------------------------------------------
 Center     Atomic      Atomic             Coordinates (Angstroms)
 Number     Number       Type             X           Y           Z
 ---------------------------------------------------------------------
      1          7           0        2.330638   -0.668905   -0.385426
      2          6           0        2.731309   -1.867792    0.053563
      3          6           0        1.831822   -2.864185    0.415695
      4          6           0        0.468197   -2.593381    0.337923
      5          6           0        0.036230   -1.348276   -0.119587
      6          6           0        1.020499   -0.429676   -0.481007
      7          6           0       -1.428318   -0.998052   -0.209212
      8          6           0       -1.944691   -0.598322   -1.600461
      9          6           0       -3.155772    0.322433   -1.315752
     10          6           0       -3.183751    0.465305    0.212619
     11          7           0       -1.798817    0.167616    0.632892
     12          6           0       -1.677479   -0.086228    2.069650
     13          1           0        3.807376   -2.028052    0.117917
     14          1           0        2.195830   -3.828997    0.763304
     15          1           0       -0.258560   -3.350967    0.633802
     16          1           0        0.745689    0.554030   -0.863889
     17          1           0       -2.007354   -1.866672    0.152149
     18          1           0       -2.207831   -1.485034   -2.185534
     19          1           0       -1.165573   -0.062504   -2.154985
     20          1           0       -4.095070   -0.099846   -1.685592
     21          1           0       -3.025138    1.296083   -1.801377
     22          1           0       -3.870394   -0.267209    0.667330
     23          1           0       -3.476904    1.461740    0.565342
     24          1           0       -2.296534   -0.944425    2.376734
     25          1           0       -2.003994    0.801007    2.623746
     26          1           0       -0.631024   -0.292333    2.322247
     27          8           0        3.452616    1.719570   -0.523655
     28          8           0       -0.576122    2.360721    0.152753
     29          8           0        1.688239    3.142989    0.439587
     30          1           0        3.921024    1.953483   -1.329253
     31          1           0       -1.211235    3.022160   -0.131034
     32          1           0        1.917034    3.365571    1.348060
     33          1           0        3.185184    0.749077   -0.562243
     34          1           0        2.447417    2.553680    0.000581
     35          1           0        0.655511    2.768085    0.339384
     36          1           0       -1.054352    1.412959    0.340989
 ---------------------------------------------------------------------
 Rotational constants (GHZ):           0.6195955           0.4391401           0.3093286
 Standard basis: Aug-CC-pVDZ (5D, 7F)
 There are   564 symmetry adapted cartesian basis functions of A   symmetry.
 There are   534 symmetry adapted basis functions of A   symmetry.
   534 basis functions,   876 primitive gaussians,   564 cartesian basis functions
    59 alpha electrons       59 beta electrons
       nuclear repulsion energy      1112.8344589708 Hartrees.
 NAtoms=   36 NActive=   36 NUniq=   36 SFac= 1.00D+00 NAtFMM=   60 NAOKFM=F Big=F
 Integral buffers will be    131072 words long.
 Raffenetti 2 integral format.
 Two-electron integral symmetry is turned on.
 Nuclear repulsion after empirical dispersion term =     1112.8054590235 Hartrees.
 One-electron integrals computed using PRISM.
 NBasis=   534 RedAO= T EigKep=  2.08D-06  NBF=   534
 NBsUse=   534 1.00D-06 EigRej= -1.00D+00 NBFU=   534
 ExpMin= 2.97D-02 ExpMax= 1.17D+04 ExpMxC= 4.01D+02 IAcc=3 IRadAn=         5 AccDes= 0.00D+00
 Harris functional with IExCor= 4639 and IRadAn=       5 diagonalized for initial guess.
 HarFok:  IExCor= 4639 AccDes= 0.00D+00 IRadAn=         5 IDoV= 1 UseB2=F ITyADJ=14
 ICtDFT=  3500011 ScaDFX=  1.000000  1.000000  1.000000  1.000000
 FoFCou: FMM=F IPFlag=           0 FMFlag=      100000 FMFlg1=           0
         NFxFlg=           0 DoJE=T BraDBF=F KetDBF=T FulRan=T
         wScrn=  0.000000 ICntrl=       500 IOpCl=  0 I1Cent=   200000004 NGrid=           0
         NMat0=    1 NMatS0=      1 NMatT0=    0 NMatD0=    1 NMtDS0=    0 NMtDT0=    0
 Petite list used in FoFCou.
 Requested convergence on RMS density matrix=1.00D-08 within 128 cycles.
 Requested convergence on MAX density matrix=1.00D-06.
 Requested convergence on             energy=1.00D-06.
 No special actions if energy rises.
 SCF Done:  E(RwB97XD) =  -728.578131694     A.U. after   16 cycles
            NFock= 16  Conv=0.15D-08     -V/T= 2.0062
 DoSCS=F DFT=T ScalE2(SS,OS)=  1.000000  1.000000
 Range of M.O.s used for correlation:     1   534
 NBasis=   534 NAE=    59 NBE=    59 NFC=     0 NFV=     0
 NROrb=    534 NOA=    59 NOB=    59 NVA=   475 NVB=   475

 **** Warning!!: The largest alpha MO coefficient is  0.11929533D+03

 Symmetrizing basis deriv contribution to polar:
 IMax=3 JMax=2 DiffMx= 0.00D+00
 G2DrvN: will do    37 centers at a time, making    1 passes.
 Calling FoFCou, ICntrl=  3107 FMM=F I1Cent=   0 AccDes= 0.00D+00.
 End of G2Drv F.D. properties file   721 does not exist.
 End of G2Drv F.D. properties file   722 does not exist.
 End of G2Drv F.D. properties file   788 does not exist.
          IDoAtm=111111111111111111111111111111111111
          Differentiating once with respect to electric field.
                with respect to dipole field.
          Differentiating once with respect to nuclear coordinates.
 CalDSu exits because no D1Ps are significant.
          There are   111 degrees of freedom in the 1st order CPHF.  IDoFFX=6 NUNeed=     3.
    108 vectors produced by pass  0 Test12= 2.80D-14 1.00D-09 XBig12= 7.48D+01 3.15D+00.
 AX will form   108 AO Fock derivatives at one time.
    108 vectors produced by pass  1 Test12= 2.80D-14 1.00D-09 XBig12= 9.46D+00 7.65D-01.
    108 vectors produced by pass  2 Test12= 2.80D-14 1.00D-09 XBig12= 2.25D-01 8.65D-02.
    108 vectors produced by pass  3 Test12= 2.80D-14 1.00D-09 XBig12= 2.11D-03 5.27D-03.
    108 vectors produced by pass  4 Test12= 2.80D-14 1.00D-09 XBig12= 1.97D-05 4.13D-04.
    108 vectors produced by pass  5 Test12= 2.80D-14 1.00D-09 XBig12= 1.32D-07 2.62D-05.
    105 vectors produced by pass  6 Test12= 2.80D-14 1.00D-09 XBig12= 7.44D-10 1.92D-06.
     44 vectors produced by pass  7 Test12= 2.80D-14 1.00D-09 XBig12= 3.76D-12 1.71D-07.
      3 vectors produced by pass  8 Test12= 2.80D-14 1.00D-09 XBig12= 2.08D-14 7.40D-09.
      3 vectors produced by pass  9 Test12= 2.80D-14 1.00D-09 XBig12= 2.51D-15 4.36D-09.
 InvSVY:  IOpt=1 It=  1 EMax= 1.78D-14
 Solved reduced A of dimension   803 with   111 vectors.
 Isotropic polarizability for W=    0.000000      153.17 Bohr**3.
 End of Minotr F.D. properties file   721 does not exist.
 End of Minotr F.D. properties file   722 does not exist.
 End of Minotr F.D. properties file   788 does not exist.

 **********************************************************************

            Population analysis using the SCF density.

 **********************************************************************

 Orbital symmetries:
       Occupied  (A) (A) (A) (A) (A) (A) (A) (A) (A) (A) (A) (A)
                 (A) (A) (A) (A) (A) (A) (A) (A) (A) (A) (A) (A)
                 (A) (A) (A) (A) (A) (A) (A) (A) (A) (A) (A) (A)
                 (A) (A) (A) (A) (A) (A) (A) (A) (A) (A) (A) (A)
                 (A) (A) (A) (A) (A) (A) (A) (A) (A) (A) (A)
       Virtual   (A) (A) (A) (A) (A) (A) (A) (A) (A) (A) (A) (A)
                 (A) (A) (A) (A) (A) (A) (A) (A) (A) (A) (A) (A)
                 (A) (A) (A) (A) (A) (A) (A) (A) (A) (A) (A) (A)
                 (A) (A) (A) (A) (A) (A) (A) (A) (A) (A) (A) (A)
                 (A) (A) (A) (A) (A) (A) (A) (A) (A) (A) (A) (A)
                 (A) (A) (A) (A) (A) (A) (A) (A) (A) (A) (A) (A)
                 (A) (A) (A) (A) (A) (A) (A) (A) (A) (A) (A) (A)
                 (A) (A) (A) (A) (A) (A) (A) (A) (A) (A) (A) (A)
                 (A) (A) (A) (A) (A) (A) (A) (A) (A) (A) (A) (A)
                 (A) (A) (A) (A) (A) (A) (A) (A) (A) (A) (A) (A)
                 (A) (A) (A) (A) (A) (A) (A) (A) (A) (A) (A) (A)
                 (A) (A) (A) (A) (A) (A) (A) (A) (A) (A) (A) (A)
                 (A) (A) (A) (A) (A) (A) (A) (A) (A) (A) (A) (A)
                 (A) (A) (A) (A) (A) (A) (A) (A) (A) (A) (A) (A)
                 (A) (A) (A) (A) (A) (A) (A) (A) (A) (A) (A) (A)
                 (A) (A) (A) (A) (A) (A) (A) (A) (A) (A) (A) (A)
                 (A) (A) (A) (A) (A) (A) (A) (A) (A) (A) (A) (A)
                 (A) (A) (A) (A) (A) (A) (A) (A) (A) (A) (A) (A)
                 (A) (A) (A) (A) (A) (A) (A) (A) (A) (A) (A) (A)
                 (A) (A) (A) (A) (A) (A) (A) (A) (A) (A) (A) (A)
                 (A) (A) (A) (A) (A) (A) (A) (A) (A) (A) (A) (A)
                 (A) (A) (A) (A) (A) (A) (A) (A) (A) (A) (A) (A)
                 (A) (A) (A) (A) (A) (A) (A) (A) (A) (A) (A) (A)
                 (A) (A) (A) (A) (A) (A) (A) (A) (A) (A) (A) (A)
                 (A) (A) (A) (A) (A) (A) (A) (A) (A) (A) (A) (A)
                 (A) (A) (A) (A) (A) (A) (A) (A) (A) (A) (A) (A)
                 (A) (A) (A) (A) (A) (A) (A) (A) (A) (A) (A) (A)
                 (A) (A) (A) (A) (A) (A) (A) (A) (A) (A) (A) (A)
                 (A) (A) (A) (A) (A) (A) (A) (A) (A) (A) (A) (A)
                 (A) (A) (A) (A) (A) (A) (A) (A) (A) (A) (A) (A)
                 (A) (A) (A) (A) (A) (A) (A) (A) (A) (A) (A) (A)
                 (A) (A) (A) (A) (A) (A) (A) (A) (A) (A) (A) (A)
                 (A) (A) (A) (A) (A) (A) (A) (A) (A) (A) (A) (A)
                 (A) (A) (A) (A) (A) (A) (A) (A) (A) (A) (A) (A)
                 (A) (A) (A) (A) (A) (A) (A) (A) (A) (A) (A) (A)
                 (A) (A) (A) (A) (A) (A) (A) (A) (A) (A) (A) (A)
                 (A) (A) (A) (A) (A) (A) (A) (A) (A) (A) (A) (A)
                 (A) (A) (A) (A) (A) (A) (A) (A) (A) (A) (A) (A)
                 (A) (A) (A) (A) (A) (A) (A) (A) (A) (A) (A) (A)
                 (A) (A) (A) (A) (A) (A) (A)
 The electronic state is 1-A.
 Alpha  occ. eigenvalues --  -19.46006 -19.41413 -19.41046 -14.60640 -14.59406
 Alpha  occ. eigenvalues --  -10.46828 -10.46679 -10.46537 -10.45021 -10.44797
 Alpha  occ. eigenvalues --  -10.44683 -10.44576 -10.43587 -10.41962 -10.41698
 Alpha  occ. eigenvalues --   -1.31716  -1.25631  -1.24937  -1.19321  -1.18477
 Alpha  occ. eigenvalues --   -1.05089  -1.01909  -1.00641  -0.95077  -0.90654
 Alpha  occ. eigenvalues --   -0.86767  -0.85588  -0.82396  -0.81318  -0.81028
 Alpha  occ. eigenvalues --   -0.80571  -0.77970  -0.76181  -0.73718  -0.72142
 Alpha  occ. eigenvalues --   -0.71185  -0.70125  -0.67047  -0.66413  -0.65899
 Alpha  occ. eigenvalues --   -0.65066  -0.63298  -0.62466  -0.62354  -0.60734
 Alpha  occ. eigenvalues --   -0.60484  -0.60073  -0.59644  -0.58043  -0.56817
 Alpha  occ. eigenvalues --   -0.56081  -0.55332  -0.55134  -0.55018  -0.53097
 Alpha  occ. eigenvalues --   -0.49863  -0.49190  -0.47474  -0.46556
 Alpha virt. eigenvalues --   -0.09786  -0.08483  -0.07417  -0.05429  -0.05191
 Alpha virt. eigenvalues --   -0.04919  -0.03639  -0.03382  -0.02839  -0.02775
 Alpha virt. eigenvalues --   -0.02234  -0.01527  -0.01098  -0.00811  -0.00526
 Alpha virt. eigenvalues --   -0.00171   0.00310   0.00984   0.01153   0.01444
 Alpha virt. eigenvalues --    0.01682   0.01893   0.02457   0.02573   0.03328
 Alpha virt. eigenvalues --    0.04075   0.04226   0.04660   0.04849   0.05100
 Alpha virt. eigenvalues --    0.05457   0.05688   0.06065   0.06188   0.06207
 Alpha virt. eigenvalues --    0.06461   0.06681   0.06851   0.07190   0.07320
 Alpha virt. eigenvalues --    0.07763   0.08080   0.08266   0.08368   0.08824
 Alpha virt. eigenvalues --    0.09231   0.09539   0.09913   0.10398   0.10788
 Alpha virt. eigenvalues --    0.10964   0.11525   0.11699   0.11805   0.11928
 Alpha virt. eigenvalues --    0.12633   0.13098   0.13327   0.13608   0.14071
 Alpha virt. eigenvalues --    0.14304   0.14737   0.15092   0.15349   0.15522
 Alpha virt. eigenvalues --    0.16047   0.16230   0.16548   0.16856   0.16971
 Alpha virt. eigenvalues --    0.17024   0.17280   0.18029   0.18459   0.18608
 Alpha virt. eigenvalues --    0.19062   0.19199   0.19436   0.19908   0.20039
 Alpha virt. eigenvalues --    0.20357   0.20824   0.21052   0.21102   0.21991
 Alpha virt. eigenvalues --    0.22342   0.22843   0.22957   0.23331   0.23796
 Alpha virt. eigenvalues --    0.23952   0.24873   0.25157   0.25443   0.25776
 Alpha virt. eigenvalues --    0.26129   0.26325   0.26697   0.26890   0.27410
 Alpha virt. eigenvalues --    0.27915   0.28220   0.28547   0.29122   0.29327
 Alpha virt. eigenvalues --    0.29683   0.30394   0.30641   0.30888   0.31057
 Alpha virt. eigenvalues --    0.31416   0.31926   0.32338   0.32651   0.33028
 Alpha virt. eigenvalues --    0.33673   0.34119   0.34340   0.34989   0.35689
 Alpha virt. eigenvalues --    0.36415   0.36813   0.37375   0.37800   0.38111
 Alpha virt. eigenvalues --    0.38388   0.38672   0.38980   0.39660   0.39902
 Alpha virt. eigenvalues --    0.40410   0.40706   0.41345   0.41699   0.42053
 Alpha virt. eigenvalues --    0.42498   0.42935   0.43165   0.44041   0.44334
 Alpha virt. eigenvalues --    0.44665   0.44807   0.45435   0.45574   0.46668
 Alpha virt. eigenvalues --    0.47027   0.47381   0.47868   0.48315   0.48576
 Alpha virt. eigenvalues --    0.48899   0.49291   0.49482   0.49845   0.50688
 Alpha virt. eigenvalues --    0.50847   0.51161   0.51893   0.52062   0.52285
 Alpha virt. eigenvalues --    0.52917   0.53217   0.53607   0.53799   0.54375
 Alpha virt. eigenvalues --    0.54457   0.55079   0.55202   0.55812   0.56641
 Alpha virt. eigenvalues --    0.57205   0.57738   0.58167   0.58792   0.59010
 Alpha virt. eigenvalues --    0.59592   0.59759   0.60237   0.60385   0.60589
 Alpha virt. eigenvalues --    0.61438   0.61823   0.62344   0.62826   0.63164
 Alpha virt. eigenvalues --    0.63397   0.63657   0.64247   0.65242   0.65452
 Alpha virt. eigenvalues --    0.66350   0.66863   0.67271   0.67455   0.67859
 Alpha virt. eigenvalues --    0.68264   0.69155   0.69239   0.69642   0.70354
 Alpha virt. eigenvalues --    0.70594   0.70665   0.71497   0.71876   0.72194
 Alpha virt. eigenvalues --    0.73155   0.73452   0.73962   0.74299   0.74941
 Alpha virt. eigenvalues --    0.75625   0.75787   0.76264   0.77198   0.78151
 Alpha virt. eigenvalues --    0.78443   0.78571   0.79262   0.80647   0.81424
 Alpha virt. eigenvalues --    0.81667   0.81837   0.82422   0.83047   0.84297
 Alpha virt. eigenvalues --    0.84669   0.85125   0.85772   0.86710   0.87206
 Alpha virt. eigenvalues --    0.87644   0.87880   0.89247   0.89957   0.90450
 Alpha virt. eigenvalues --    0.91091   0.91703   0.92424   0.93767   0.94066
 Alpha virt. eigenvalues --    0.94306   0.94629   0.96029   0.96960   0.97821
 Alpha virt. eigenvalues --    0.98568   0.99868   1.00758   1.01506   1.02580
 Alpha virt. eigenvalues --    1.03008   1.04142   1.04805   1.06321   1.06616
 Alpha virt. eigenvalues --    1.07255   1.09260   1.10018   1.10760   1.11458
 Alpha virt. eigenvalues --    1.11953   1.13697   1.13833   1.14159   1.14365
 Alpha virt. eigenvalues --    1.15446   1.16379   1.17592   1.18050   1.18280
 Alpha virt. eigenvalues --    1.19920   1.20595   1.21521   1.22096   1.22612
 Alpha virt. eigenvalues --    1.23595   1.24898   1.26447   1.27971   1.29763
 Alpha virt. eigenvalues --    1.30039   1.31238   1.31573   1.32494   1.33125
 Alpha virt. eigenvalues --    1.33943   1.35031   1.35233   1.36871   1.38033
 Alpha virt. eigenvalues --    1.39254   1.39972   1.40979   1.41972   1.43147
 Alpha virt. eigenvalues --    1.43656   1.44412   1.46001   1.46944   1.47822
 Alpha virt. eigenvalues --    1.47960   1.48799   1.49422   1.51457   1.51990
 Alpha virt. eigenvalues --    1.52550   1.54150   1.54847   1.56221   1.56758
 Alpha virt. eigenvalues --    1.57855   1.59179   1.59487   1.60054   1.61155
 Alpha virt. eigenvalues --    1.62107   1.63005   1.63498   1.63752   1.64780
 Alpha virt. eigenvalues --    1.65660   1.66626   1.67800   1.68069   1.68602
 Alpha virt. eigenvalues --    1.69383   1.70542   1.71069   1.71308   1.72851
 Alpha virt. eigenvalues --    1.73537   1.73833   1.74607   1.76236   1.78193
 Alpha virt. eigenvalues --    1.79236   1.79782   1.80527   1.81360   1.82144
 Alpha virt. eigenvalues --    1.82218   1.82621   1.83466   1.83553   1.85033
 Alpha virt. eigenvalues --    1.85689   1.86384   1.87295   1.88732   1.89127
 Alpha virt. eigenvalues --    1.90302   1.91762   1.92023   1.92996   1.93476
 Alpha virt. eigenvalues --    1.94259   1.94896   1.96525   1.98044   1.98750
 Alpha virt. eigenvalues --    1.99668   1.99987   2.00410   2.02070   2.02204
 Alpha virt. eigenvalues --    2.03173   2.05318   2.05761   2.08152   2.09342
 Alpha virt. eigenvalues --    2.09415   2.10387   2.10816   2.12036   2.12392
 Alpha virt. eigenvalues --    2.14092   2.14707   2.16156   2.17057   2.17588
 Alpha virt. eigenvalues --    2.17966   2.18951   2.19816   2.21795   2.22776
 Alpha virt. eigenvalues --    2.23747   2.25448   2.25617   2.26590   2.27677
 Alpha virt. eigenvalues --    2.28782   2.30237   2.30379   2.31050   2.32297
 Alpha virt. eigenvalues --    2.33507   2.35158   2.35859   2.37543   2.38960
 Alpha virt. eigenvalues --    2.39468   2.40908   2.42329   2.44158   2.44745
 Alpha virt. eigenvalues --    2.45781   2.46878   2.48508   2.50554   2.51522
 Alpha virt. eigenvalues --    2.52255   2.53007   2.54337   2.55414   2.56867
 Alpha virt. eigenvalues --    2.57092   2.57666   2.60109   2.60374   2.62003
 Alpha virt. eigenvalues --    2.62180   2.63305   2.64591   2.65346   2.67634
 Alpha virt. eigenvalues --    2.68091   2.70740   2.70975   2.72393   2.75074
 Alpha virt. eigenvalues --    2.76364   2.78978   2.79180   2.81497   2.82789
 Alpha virt. eigenvalues --    2.83593   2.84131   2.85172   2.87996   2.89392
 Alpha virt. eigenvalues --    2.89888   2.91181   2.92137   2.93433   2.96072
 Alpha virt. eigenvalues --    2.98202   3.00233   3.03843   3.04922   3.08080
 Alpha virt. eigenvalues --    3.13726   3.17366   3.21427   3.28361   3.29455
 Alpha virt. eigenvalues --    3.31464   3.33698   3.35107   3.40586   3.41102
 Alpha virt. eigenvalues --    3.42627   3.43731   3.47505   3.55023   3.64145
 Alpha virt. eigenvalues --    3.70115   3.74844   3.81168   3.90828   3.99499
 Alpha virt. eigenvalues --    4.04590   4.10419   4.23384   4.32216   4.97538
          Condensed to atoms (all electrons):
               1          2          3          4          5          6
     1  N    7.994216   0.065391   0.316828  -0.501483  -0.313747  -0.497580
     2  C    0.065391   9.858713  -2.476301   1.545076  -1.166106  -0.914719
     3  C    0.316828  -2.476301  11.436504  -4.173607   0.675938  -0.454498
     4  C   -0.501483   1.545076  -4.173607  21.696114  -8.191258  -1.666725
     5  C   -0.313747  -1.166106   0.675938  -8.191258  23.048459  -3.534166
     6  C   -0.497580  -0.914719  -0.454498  -1.666725  -3.534166  15.551215
     7  C    0.790505  -0.886318   0.691346  -1.393191  -9.373136  -1.521020
     8  C   -0.008601  -0.094225  -0.020636  -0.111144   0.190432  -0.656560
     9  C    0.008058   0.004922  -0.016248  -0.058997   0.318784   0.000179
    10  C    0.043537  -0.021590  -0.014106   0.001327  -0.334642  -0.155424
    11  N   -0.082881   0.100941  -0.157574  -0.484349   2.168049   0.092612
    12  C   -0.027649  -0.023775   0.072447  -0.245165   0.708744  -0.017447
    13  H   -0.122377  -0.462043   0.074650   0.207899  -0.006514   0.067840
    14  H   -0.067553   0.385371  -1.142498   0.632839  -0.136326   0.022829
    15  H   -0.044631  -0.193284   0.647846  -2.366798   1.152162   0.095960
    16  H   -0.097518  -0.129328   0.099809  -0.198743  -0.865924  -0.913435
    17  H    0.012371   0.045757  -0.027615   0.045448   0.908599  -0.251082
    18  H   -0.022141   0.002464   0.000197  -0.029842   0.430790   0.273431
    19  H    0.040255   0.020167  -0.035781   0.042467  -0.061428  -0.188373
    20  H   -0.001033   0.002664  -0.003297   0.000466  -0.000333   0.017532
    21  H    0.000728  -0.003373   0.001645   0.006774  -0.119835  -0.024571
    22  H   -0.001653  -0.001585   0.003067   0.021402   0.158559   0.019549
    23  H    0.002779   0.000202  -0.001014   0.021782  -0.190116  -0.006792
    24  H   -0.003238   0.014010  -0.027014   0.027946   0.190164   0.019230
    25  H   -0.000866  -0.003904   0.014138  -0.012494  -0.070412  -0.027958
    26  H    0.000620  -0.028543   0.046218  -0.042034   0.087749   0.075481
    27  O   -0.055510   0.040543  -0.015563   0.024903  -0.086037  -0.040931
    28  O   -0.008544  -0.009466   0.006651  -0.021926  -0.005424  -0.068416
    29  O    0.005066   0.026943  -0.010025  -0.004375  -0.020247  -0.027335
    30  H   -0.001210  -0.014005   0.006415  -0.002608   0.007231  -0.002345
    31  H   -0.001056   0.002333  -0.000664   0.002570   0.027792   0.010438
    32  H   -0.003120  -0.001855   0.001874  -0.000336   0.003406   0.001431
    33  H    0.167232   0.076587  -0.060290   0.022010  -0.021056  -0.129546
    34  H   -0.003839  -0.004696   0.003538  -0.005954   0.009882   0.005382
    35  H    0.008883   0.003617  -0.006289  -0.005971  -0.010693  -0.001042
    36  H    0.007698  -0.037702   0.026263  -0.000238  -0.306928  -0.107571
               7          8          9         10         11         12
     1  N    0.790505  -0.008601   0.008058   0.043537  -0.082881  -0.027649
     2  C   -0.886318  -0.094225   0.004922  -0.021590   0.100941  -0.023775
     3  C    0.691346  -0.020636  -0.016248  -0.014106  -0.157574   0.072447
     4  C   -1.393191  -0.111144  -0.058997   0.001327  -0.484349  -0.245165
     5  C   -9.373136   0.190432   0.318784  -0.334642   2.168049   0.708744
     6  C   -1.521020  -0.656560   0.000179  -0.155424   0.092612  -0.017447
     7  C   26.816491  -1.574681   0.060088  -0.417240  -6.785459  -1.183178
     8  C   -1.574681   8.343138  -0.860655   0.633049  -0.810140  -0.226441
     9  C    0.060088  -0.860655   6.133322   0.085146  -0.435349   0.011212
    10  C   -0.417240   0.633049   0.085146   5.736154  -0.216493  -0.192691
    11  N   -6.785459  -0.810140  -0.435349  -0.216493  18.488444   1.384148
    12  C   -1.183178  -0.226441   0.011212  -0.192691   1.384148   4.820205
    13  H   -0.033049   0.003748   0.000362  -0.001015   0.005886   0.003818
    14  H    0.041210   0.001108   0.000460  -0.000069  -0.002852  -0.009963
    15  H   -0.141524  -0.069993  -0.001819  -0.004664   0.037482   0.066049
    16  H    0.269686   0.084363  -0.018003   0.023806  -0.208222   0.025203
    17  H   -2.549154   0.716507  -0.046263   0.059028  -0.582957  -0.134889
    18  H   -0.033370  -1.082914   0.155784  -0.208170   0.385736   0.084878
    19  H   -0.073410  -0.132484   0.330731   0.063187  -0.209689  -0.061007
    20  H   -0.109744   0.241696  -0.247397   0.209477  -0.141409  -0.014348
    21  H    0.346641   0.187182  -0.373322  -0.083718   0.075210   0.010563
    22  H    0.213355  -0.018622   0.002223  -0.374209  -0.370396  -0.029273
    23  H    0.632800   0.082918   0.109003  -0.125065  -1.543823  -0.180068
    24  H   -0.284113   0.055018  -0.003519   0.130833  -0.607711   0.277378
    25  H    0.239565  -0.079760   0.079225   0.028008  -0.388096   0.145677
    26  H    0.014075   0.070223  -0.044964  -0.084013   0.034255  -0.008729
    27  O    0.008857  -0.002055  -0.001515   0.000217  -0.001391   0.000490
    28  O    0.011395   0.051505   0.006796   0.033667  -0.185238  -0.042562
    29  O   -0.009074   0.001162  -0.000376   0.003276  -0.027965   0.006629
    30  H   -0.005820   0.001723   0.000237   0.000166   0.001679   0.000501
    31  H   -0.083471   0.023537  -0.013614   0.021625   0.026608   0.021946
    32  H   -0.004621  -0.000575  -0.000295  -0.001006   0.002103   0.001326
    33  H    0.035990  -0.013589  -0.001082  -0.000482  -0.007227  -0.005523
    34  H    0.007211   0.002147  -0.001539  -0.000715   0.000005  -0.001142
    35  H    0.052090  -0.010240   0.015735   0.006019  -0.029854  -0.015381
    36  H    0.928306   0.032987   0.007768  -0.141507  -0.816109  -0.246451
              13         14         15         16         17         18
     1  N   -0.122377  -0.067553  -0.044631  -0.097518   0.012371  -0.022141
     2  C   -0.462043   0.385371  -0.193284  -0.129328   0.045757   0.002464
     3  C    0.074650  -1.142498   0.647846   0.099809  -0.027615   0.000197
     4  C    0.207899   0.632839  -2.366798  -0.198743   0.045448  -0.029842
     5  C   -0.006514  -0.136326   1.152162  -0.865924   0.908599   0.430790
     6  C    0.067840   0.022829   0.095960  -0.913435  -0.251082   0.273431
     7  C   -0.033049   0.041210  -0.141524   0.269686  -2.549154  -0.033370
     8  C    0.003748   0.001108  -0.069993   0.084363   0.716507  -1.082914
     9  C    0.000362   0.000460  -0.001819  -0.018003  -0.046263   0.155784
    10  C   -0.001015  -0.000069  -0.004664   0.023806   0.059028  -0.208170
    11  N    0.005886  -0.002852   0.037482  -0.208222  -0.582957   0.385736
    12  C    0.003818  -0.009963   0.066049   0.025203  -0.134889   0.084878
    13  H    2.033422  -0.118931  -0.005286   0.009770   0.000459   0.001309
    14  H   -0.118931   2.131006  -0.147122  -0.008723   0.002264  -0.002294
    15  H   -0.005286  -0.147122   3.056239  -0.006385  -0.181070   0.015501
    16  H    0.009770  -0.008723  -0.006385   4.345822  -0.043476   0.078949
    17  H    0.000459   0.002264  -0.181070  -0.043476   3.773800  -0.363398
    18  H    0.001309  -0.002294   0.015501   0.078949  -0.363398   2.678022
    19  H   -0.001505   0.001592  -0.008977  -0.159399   0.254928  -0.726431
    20  H    0.000077  -0.000058   0.002209  -0.009201   0.072116  -0.308547
    21  H   -0.000053   0.000032  -0.000731   0.030918  -0.062214   0.181166
    22  H    0.000073  -0.000377   0.001506   0.017067  -0.104445   0.069986
    23  H   -0.000094   0.000125  -0.003605  -0.028627   0.117392  -0.044293
    24  H    0.000512  -0.000223   0.009620   0.003819   0.071173   0.009680
    25  H    0.000456  -0.001081   0.003112   0.005060   0.019292   0.002097
    26  H   -0.003551   0.000505  -0.001438  -0.006649   0.015188   0.000047
    27  O    0.005189  -0.000080   0.000203  -0.000102  -0.000034   0.000241
    28  O    0.000111   0.000017  -0.000744   0.044606  -0.005173   0.003319
    29  O    0.001349  -0.000389   0.000158   0.036174  -0.000408  -0.000112
    30  H    0.003424  -0.000397   0.000203   0.008426  -0.000206  -0.000020
    31  H    0.000130  -0.000105   0.000782   0.000015  -0.001763   0.001973
    32  H    0.000211  -0.000056   0.000123   0.001881  -0.000251   0.000142
    33  H   -0.068320   0.008365  -0.001531  -0.051009  -0.000789   0.000164
    34  H    0.001723  -0.000177  -0.000216  -0.011212   0.000566  -0.000335
    35  H   -0.002183   0.000783  -0.001552  -0.019631   0.002370  -0.001574
    36  H    0.000460   0.000504  -0.005441  -0.028000   0.048201  -0.030085
              19         20         21         22         23         24
     1  N    0.040255  -0.001033   0.000728  -0.001653   0.002779  -0.003238
     2  C    0.020167   0.002664  -0.003373  -0.001585   0.000202   0.014010
     3  C   -0.035781  -0.003297   0.001645   0.003067  -0.001014  -0.027014
     4  C    0.042467   0.000466   0.006774   0.021402   0.021782   0.027946
     5  C   -0.061428  -0.000333  -0.119835   0.158559  -0.190116   0.190164
     6  C   -0.188373   0.017532  -0.024571   0.019549  -0.006792   0.019230
     7  C   -0.073410  -0.109744   0.346641   0.213355   0.632800  -0.284113
     8  C   -0.132484   0.241696   0.187182  -0.018622   0.082918   0.055018
     9  C    0.330731  -0.247397  -0.373322   0.002223   0.109003  -0.003519
    10  C    0.063187   0.209477  -0.083718  -0.374209  -0.125065   0.130833
    11  N   -0.209689  -0.141409   0.075210  -0.370396  -1.543823  -0.607711
    12  C   -0.061007  -0.014348   0.010563  -0.029273  -0.180068   0.277378
    13  H   -0.001505   0.000077  -0.000053   0.000073  -0.000094   0.000512
    14  H    0.001592  -0.000058   0.000032  -0.000377   0.000125  -0.000223
    15  H   -0.008977   0.002209  -0.000731   0.001506  -0.003605   0.009620
    16  H   -0.159399  -0.009201   0.030918   0.017067  -0.028627   0.003819
    17  H    0.254928   0.072116  -0.062214  -0.104445   0.117392   0.071173
    18  H   -0.726431  -0.308547   0.181166   0.069986  -0.044293   0.009680
    19  H    2.412430   0.205894  -0.449144  -0.067024   0.070241   0.001314
    20  H    0.205894   2.072307  -0.601895  -0.260490   0.136375   0.002949
    21  H   -0.449144  -0.601895   2.265280   0.197280  -0.321665  -0.004195
    22  H   -0.067024  -0.260490   0.197280   2.560260  -0.605640   0.040323
    23  H    0.070241   0.136375  -0.321665  -0.605640   3.176182   0.030910
    24  H    0.001314   0.002949  -0.004195   0.040323   0.030910   2.051732
    25  H   -0.006272  -0.002208   0.010528   0.013938   0.014659  -0.367708
    26  H    0.005997   0.001125  -0.006923   0.009734   0.010085  -0.391357
    27  O    0.001727  -0.000105  -0.000215   0.000039   0.000086   0.000163
    28  O   -0.015848  -0.004239   0.005078  -0.016696   0.109894  -0.016091
    29  O    0.003082   0.000071  -0.000931  -0.000053   0.001467   0.000254
    30  H    0.001158   0.000014  -0.000100   0.000016  -0.000037  -0.000005
    31  H    0.007002   0.000628  -0.000985   0.001644  -0.003950   0.006689
    32  H   -0.001163  -0.000008   0.000221   0.000204  -0.000894   0.000227
    33  H   -0.003478  -0.000021   0.000151  -0.000018   0.000776   0.000244
    34  H    0.001801   0.000031  -0.000154  -0.000154   0.000581  -0.000234
    35  H    0.001411   0.000325  -0.002764  -0.003102   0.002509  -0.001206
    36  H    0.032519  -0.003926   0.032760   0.047243   0.131330  -0.071374
              25         26         27         28         29         30
     1  N   -0.000866   0.000620  -0.055510  -0.008544   0.005066  -0.001210
     2  C   -0.003904  -0.028543   0.040543  -0.009466   0.026943  -0.014005
     3  C    0.014138   0.046218  -0.015563   0.006651  -0.010025   0.006415
     4  C   -0.012494  -0.042034   0.024903  -0.021926  -0.004375  -0.002608
     5  C   -0.070412   0.087749  -0.086037  -0.005424  -0.020247   0.007231
     6  C   -0.027958   0.075481  -0.040931  -0.068416  -0.027335  -0.002345
     7  C    0.239565   0.014075   0.008857   0.011395  -0.009074  -0.005820
     8  C   -0.079760   0.070223  -0.002055   0.051505   0.001162   0.001723
     9  C    0.079225  -0.044964  -0.001515   0.006796  -0.000376   0.000237
    10  C    0.028008  -0.084013   0.000217   0.033667   0.003276   0.000166
    11  N   -0.388096   0.034255  -0.001391  -0.185238  -0.027965   0.001679
    12  C    0.145677  -0.008729   0.000490  -0.042562   0.006629   0.000501
    13  H    0.000456  -0.003551   0.005189   0.000111   0.001349   0.003424
    14  H   -0.001081   0.000505  -0.000080   0.000017  -0.000389  -0.000397
    15  H    0.003112  -0.001438   0.000203  -0.000744   0.000158   0.000203
    16  H    0.005060  -0.006649  -0.000102   0.044606   0.036174   0.008426
    17  H    0.019292   0.015188  -0.000034  -0.005173  -0.000408  -0.000206
    18  H    0.002097   0.000047   0.000241   0.003319  -0.000112  -0.000020
    19  H   -0.006272   0.005997   0.001727  -0.015848   0.003082   0.001158
    20  H   -0.002208   0.001125  -0.000105  -0.004239   0.000071   0.000014
    21  H    0.010528  -0.006923  -0.000215   0.005078  -0.000931  -0.000100
    22  H    0.013938   0.009734   0.000039  -0.016696  -0.000053   0.000016
    23  H    0.014659   0.010085   0.000086   0.109894   0.001467  -0.000037
    24  H   -0.367708  -0.391357   0.000163  -0.016091   0.000254  -0.000005
    25  H    2.136614  -0.640186  -0.000242   0.020906   0.002690   0.000026
    26  H   -0.640186   1.966497   0.000896   0.015566   0.000450   0.000047
    27  O   -0.000242   0.000896   8.072189   0.000237  -0.075805   0.389182
    28  O    0.020906   0.015566   0.000237   8.444089  -0.049194   0.000988
    29  O    0.002690   0.000450  -0.075805  -0.049194   7.976381   0.006572
    30  H    0.000026   0.000047   0.389182   0.000988   0.006572   0.559267
    31  H   -0.001346  -0.002104   0.001566   0.346927   0.020667   0.000289
    32  H   -0.000067   0.000257  -0.000963  -0.000288   0.359277  -0.000889
    33  H   -0.000936   0.000866   0.220507  -0.005378  -0.028232  -0.093672
    34  H    0.000865  -0.000917   0.027009  -0.007833   0.201562  -0.007927
    35  H   -0.000040   0.000993  -0.016341   0.062088   0.067901  -0.001649
    36  H    0.083858   0.027188  -0.007822  -0.049990  -0.050979  -0.001109
              31         32         33         34         35         36
     1  N   -0.001056  -0.003120   0.167232  -0.003839   0.008883   0.007698
     2  C    0.002333  -0.001855   0.076587  -0.004696   0.003617  -0.037702
     3  C   -0.000664   0.001874  -0.060290   0.003538  -0.006289   0.026263
     4  C    0.002570  -0.000336   0.022010  -0.005954  -0.005971  -0.000238
     5  C    0.027792   0.003406  -0.021056   0.009882  -0.010693  -0.306928
     6  C    0.010438   0.001431  -0.129546   0.005382  -0.001042  -0.107571
     7  C   -0.083471  -0.004621   0.035990   0.007211   0.052090   0.928306
     8  C    0.023537  -0.000575  -0.013589   0.002147  -0.010240   0.032987
     9  C   -0.013614  -0.000295  -0.001082  -0.001539   0.015735   0.007768
    10  C    0.021625  -0.001006  -0.000482  -0.000715   0.006019  -0.141507
    11  N    0.026608   0.002103  -0.007227   0.000005  -0.029854  -0.816109
    12  C    0.021946   0.001326  -0.005523  -0.001142  -0.015381  -0.246451
    13  H    0.000130   0.000211  -0.068320   0.001723  -0.002183   0.000460
    14  H   -0.000105  -0.000056   0.008365  -0.000177   0.000783   0.000504
    15  H    0.000782   0.000123  -0.001531  -0.000216  -0.001552  -0.005441
    16  H    0.000015   0.001881  -0.051009  -0.011212  -0.019631  -0.028000
    17  H   -0.001763  -0.000251  -0.000789   0.000566   0.002370   0.048201
    18  H    0.001973   0.000142   0.000164  -0.000335  -0.001574  -0.030085
    19  H    0.007002  -0.001163  -0.003478   0.001801   0.001411   0.032519
    20  H    0.000628  -0.000008  -0.000021   0.000031   0.000325  -0.003926
    21  H   -0.000985   0.000221   0.000151  -0.000154  -0.002764   0.032760
    22  H    0.001644   0.000204  -0.000018  -0.000154  -0.003102   0.047243
    23  H   -0.003950  -0.000894   0.000776   0.000581   0.002509   0.131330
    24  H    0.006689   0.000227   0.000244  -0.000234  -0.001206  -0.071374
    25  H   -0.001346  -0.000067  -0.000936   0.000865  -0.000040   0.083858
    26  H   -0.002104   0.000257   0.000866  -0.000917   0.000993   0.027188
    27  O    0.001566  -0.000963   0.220507   0.027009  -0.016341  -0.007822
    28  O    0.346927  -0.000288  -0.005378  -0.007833   0.062088  -0.049990
    29  O    0.020667   0.359277  -0.028232   0.201562   0.067901  -0.050979
    30  H    0.000289  -0.000889  -0.093672  -0.007927  -0.001649  -0.001109
    31  H    0.599708  -0.000986  -0.001138  -0.000792  -0.025221  -0.134390
    32  H   -0.000986   0.493440  -0.001435  -0.045738  -0.031995   0.001244
    33  H   -0.001138  -0.001435   0.564757  -0.010088   0.006866   0.004332
    34  H   -0.000792  -0.045738  -0.010088   0.368830  -0.007271   0.006445
    35  H   -0.025221  -0.031995   0.006866  -0.007271   0.341353   0.005025
    36  H   -0.134390   0.001244   0.004332   0.006445   0.005025   0.744716
 Mulliken charges:
               1
     1  N   -0.597941
     2  C    0.277115
     3  C    0.517647
     4  C    1.218215
     5  C    0.727590
     6  C    0.954428
     7  C    1.301963
     8  C    1.050869
     9  C    0.794923
    10  C    1.298299
    11  N   -1.707975
    12  C    1.024469
    13  H   -0.597956
    14  H   -0.589736
    15  H   -0.902340
    16  H   -1.281785
    17  H   -0.810272
    18  H   -0.522349
    19  H   -0.296490
    20  H   -0.257697
    21  H   -0.295368
    22  H   -0.523731
    23  H   -0.596413
    24  H   -0.166201
    25  H   -0.217142
    26  H   -0.122653
    27  O   -0.489532
    28  O   -0.650787
    29  O   -0.415634
    30  H    0.144434
    31  H    0.146716
    32  H    0.229175
    33  H    0.395993
    34  H    0.473358
    35  H    0.616032
    36  H    0.870772
 Sum of Mulliken charges =   1.00000
 Mulliken charges with hydrogens summed into heavy atoms:
               1
     1  N   -0.597941
     2  C   -0.320841
     3  C   -0.072089
     4  C    0.315875
     5  C    0.727590
     6  C   -0.327356
     7  C    0.491691
     8  C    0.232031
     9  C    0.241858
    10  C    0.178155
    11  N   -1.707975
    12  C    0.518474
    27  O    0.050896
    28  O    0.366702
    29  O    0.902931
 APT charges:
               1
     1  N   -0.467920
     2  C    0.166332
     3  C   -0.114072
     4  C    0.097840
     5  C   -0.070927
     6  C    0.097915
     7  C    0.338387
     8  C    0.033698
     9  C    0.066389
    10  C    0.287585
    11  N   -0.712629
    12  C    0.242707
    13  H    0.058555
    14  H    0.068314
    15  H    0.064022
    16  H    0.065186
    17  H   -0.056211
    18  H    0.004803
    19  H   -0.003796
    20  H   -0.002250
    21  H   -0.017899
    22  H   -0.034322
    23  H   -0.014169
    24  H   -0.015907
    25  H    0.011516
    26  H    0.006272
    27  O   -0.867251
    28  O   -0.987420
    29  O   -0.848166
    30  H    0.294060
    31  H    0.265376
    32  H    0.322031
    33  H    0.619488
    34  H    0.656464
    35  H    0.763164
    36  H    0.682839
 Sum of APT charges =   1.00000
 APT charges with hydrogens summed into heavy atoms:
               1
     1  N   -0.467920
     2  C    0.224886
     3  C   -0.045758
     4  C    0.161862
     5  C   -0.070927
     6  C    0.163101
     7  C    0.282176
     8  C    0.034705
     9  C    0.046240
    10  C    0.239094
    11  N   -0.712629
    12  C    0.244588
    27  O    0.046296
    28  O   -0.039206
    29  O    0.893492
 Electronic spatial extent (au):  <R**2>=           3810.9176
 Charge=              1.0000 electrons
 Dipole moment (field-independent basis, Debye):
    X=              0.2494    Y=              2.2249    Z=              1.0892  Tot=              2.4898
 Quadrupole moment (field-independent basis, Debye-Ang):
   XX=            -56.0205   YY=            -58.7123   ZZ=            -81.7666
   XY=              1.9427   XZ=             -1.6172   YZ=             -0.0093
 Traceless Quadrupole moment (field-independent basis, Debye-Ang):
   XX=              9.4793   YY=              6.7875   ZZ=            -16.2668
   XY=              1.9427   XZ=             -1.6172   YZ=             -0.0093
 Octapole moment (field-independent basis, Debye-Ang**2):
  XXX=             42.0177  YYY=             54.9283  ZZZ=              6.7413  XYY=             37.0814
  XXY=             27.1593  XXZ=            -18.0888  XZZ=              9.0549  YZZ=             29.7452
  YYZ=             24.0887  XYZ=             -4.5866
 Hexadecapole moment (field-independent basis, Debye-Ang**3):
 XXXX=          -2191.6382 YYYY=          -1331.4916 ZZZZ=           -537.1138 XXXY=             64.7142
 XXXZ=            -85.9472 YYYX=             30.0648 YYYZ=             18.5844 ZZZX=            -20.5977
 ZZZY=             19.4234 XXYY=           -530.8317 XXZZ=           -451.1166 YYZZ=           -325.1298
 XXYZ=            -35.1250 YYXZ=             35.9661 ZZXY=             67.5010
 N-N= 1.112805459023D+03 E-N=-3.909075248652D+03  KE= 7.240909049473D+02
  Exact polarizability: 179.297  -7.333 157.760   0.927  -8.071 122.460
 Approx polarizability: 184.044  -1.557 176.308  -0.435 -12.486 140.834
 Calling FoFJK, ICntrl=    100127 FMM=F ISym2X=0 I1Cent= 0 IOpClX= 0 NMat=1 NMatS=1 NMatT=0.
 ***** Axes restored to original set *****
 -------------------------------------------------------------------
 Center     Atomic                   Forces (Hartrees/Bohr)
 Number     Number              X              Y              Z
 -------------------------------------------------------------------
      1        7          -0.000076063   -0.000065600    0.000011546
      2        6          -0.000004464   -0.000068407    0.000031118
      3        6           0.000082885   -0.000002323    0.000009166
      4        6          -0.000070407    0.000051125   -0.000021439
      5        6           0.000091502    0.000002213   -0.000002530
      6        6          -0.000046923    0.000004059   -0.000007647
      7        6          -0.000059826   -0.000050833    0.000017798
      8        6           0.000031810    0.000013633   -0.000006847
      9        6           0.000021686    0.000016550   -0.000008675
     10        6          -0.000055138    0.000002511    0.000015806
     11        7           0.000045533    0.000033502    0.000023497
     12        6          -0.000010858   -0.000061229   -0.000047449
     13        1          -0.000016768    0.000003492   -0.000003500
     14        1          -0.000008249    0.000027904   -0.000013086
     15        1           0.000001826    0.000002885   -0.000001170
     16        1           0.000012945   -0.000027256    0.000014069
     17        1           0.000020665    0.000011275   -0.000006892
     18        1          -0.000007708    0.000013369    0.000010630
     19        1          -0.000014953   -0.000016895   -0.000003975
     20        1          -0.000017382   -0.000002350   -0.000003790
     21        1          -0.000001156   -0.000010534    0.000007676
     22        1           0.000008882    0.000002003   -0.000005943
     23        1           0.000011098   -0.000014251   -0.000009538
     24        1           0.000016119    0.000018765   -0.000004131
     25        1          -0.000009498    0.000034134    0.000014359
     26        1          -0.000003361    0.000002064   -0.000002940
     27        8           0.000029259    0.000006494   -0.000149272
     28        8          -0.000027229    0.000122488    0.000103324
     29        8           0.000046786   -0.000048953    0.000089050
     30        1          -0.000086370   -0.000046049    0.000105779
     31        1           0.000030148   -0.000027660   -0.000057392
     32        1          -0.000039760   -0.000083379   -0.000163720
     33        1           0.000109068    0.000122257   -0.000008823
     34        1          -0.000110038    0.000108598    0.000101424
     35        1           0.000133540    0.000020895   -0.000023155
     36        1          -0.000027603   -0.000094497   -0.000003329
 -------------------------------------------------------------------
 Cartesian Forces:  Max     0.000163720 RMS     0.000051200
[...]
 0.00004201,-0.00023468,-0.00019565,0.00034612,-0.00020620,-0.00005042,
 -0.00000536,-0.00012911,-0.00001408,0.00003351,0.00002458,-0.00019073,
 0.00003572,-0.00007250,-0.00002175,0.00014124,-0.00003756,-0.00025257,
 -0.14350041,0.15245484,-0.09582539,0.00115393,0.00036172,0.00050297,0.
 00008147,-0.00005670,0.00006221,0.14627152,-0.15261010,0.09890606,-0.0
 0001319,-0.00002800,-0.00001217,0.00006133,0.00004641,-0.00002351,-0.0
 0006326,-0.00000564,-0.00000387,0.00002473,-0.00003731,0.00002200,-0.0
 0001082,0.00004332,0.00000106,0.00001215,-0.00006300,0.00004557,0.0000
 3462,-0.00009878,-0.00003009,-0.00000760,0.00000994,0.00001648,-0.0000
 0168,-0.00000731,-0.00000188,-0.00000938,-0.00001260,-0.00000344,0.000
 05079,-0.00004697,-0.00001042,-0.00000270,-0.00002589,-0.00009587,-0.0
 0000883,0.00001884,0.00001195,0.00000123,0.00000386,0.00000143,0.00000
 167,-0.00000493,-0.00000415,-0.00003262,0.00001546,-0.00004020,-0.0000
 0050,0.00000589,-0.00000509,0.00000453,0.00000773,0.00000706,0.0000007
 4,-0.00000889,-0.00000596,0.00000176,0.00000855,0.00000420,-0.00000372
 ,0.00000582,-0.00000859,0.00000839,0.00001315,0.00000331,-0.00000778,0
 .00001633,0.00000194,0.00003143,0.00003588,0.00004945,-0.00009680,0.00
 000403,0.00003548,0.00002858,-0.00008815,0.00000677,-0.00507326,0.0029
 9503,0.00060837,-0.00546515,-0.00163969,0.00199837,-0.09015945,-0.0283
 4207,-0.11064400,-0.00003420,0.00021610,-0.00007456,-0.00032768,-0.000
 19391,-0.00007331,0.07447964,0.00013328,0.00018568,0.00020155,0.000134
 25,-0.00011919,0.00002609,-0.00000736,0.00000052,-0.00002505,0.0000072
 1,-0.00004705,0.00001329,-0.00005361,0.00003705,-0.00001776,-0.0002272
 5,0.00005828,0.00001295,-0.00006812,-0.00004798,-0.00002739,0.00000525
 ,-0.00001822,-0.00001946,0.00001346,0.00000621,0.00001629,-0.00014896,
 0.00006610,-0.00002037,0.00021108,0.00008291,0.00001650,-0.00013908,0.
 00006587,-0.00003761,0.00000073,-0.00000988,-0.00001343,0.00000468,0.0
 0000053,-0.00000872,0.00000967,0.00000360,-0.00000484,0.00000872,0.000
 03889,-0.00002239,0.00001695,0.00002071,-0.00000289,0.00001024,0.00000
 698,0.00000130,0.00000143,-0.00000175,-0.00002258,0.00001635,0.0000092
 6,0.00000844,-0.00001022,-0.00001108,-0.00000098,0.00002695,0.00000894
 ,0.00000112,0.00000251,-0.00001609,-0.00000399,0.00006608,0.00001931,0
 .00004058,-0.00004850,-0.00000084,0.00001876,0.00003154,-0.00012790,0.
 00003323,0.00158772,-0.00109466,0.00042367,-0.00014392,0.00002304,0.00
 038395,-0.02099736,-0.04179389,-0.11329431,0.00042299,0.00026944,0.000
 23193,-0.00018385,0.00038193,0.00045674,0.02925846,0.04861627,0.000117
 76,0.00038830,-0.00007252,0.00014818,-0.00004815,0.00000532,-0.0000514
 2,0.00004998,-0.00003692,0.00005424,-0.00002641,-0.00000333,-0.0000252
 6,0.00014526,-0.00004070,-0.00000605,-0.00022292,0.00012686,-0.0000192
 7,-0.00002631,-0.00005312,-0.00001408,-0.00003206,-0.00000304,-0.00000
 948,-0.00002351,0.00001369,-0.00010087,-0.00000278,-0.00004904,0.00029
 009,0.00057047,-0.00019181,0.00006009,-0.00001661,0.00026379,-0.000021
 43,0.00001187,0.00001934,0.00000798,0.00002190,0.00000395,0.00000714,0
 .00001566,0.00000206,-0.00009703,-0.00008381,-0.00015195,0.00001749,0.
 00005509,0.00000711,0.00001006,0.00001467,-0.00000928,0.00001436,-0.00
 000779,-0.00003073,0.00001118,0.00001783,-0.00000767,-0.00002022,0.000
 01107,-0.00003546,0.00003475,0.00003606,0.00000149,-0.00002475,-0.0000
 2330,0.00002658,-0.00000321,0.00002320,-0.00006841,0.00007089,-0.00002
 936,0.00000878,-0.00003548,0.00007227,0.00004093,-0.00096824,0.0011467
 6,0.00106891,0.00475634,0.00174516,-0.00007210,-0.10793769,-0.13834309
 ,-0.46880874,0.00001081,0.00015098,0.00001569,0.00013193,0.00016137,0.
 00000328,0.11441514,0.13612011,0.47712538,-0.01426775,0.01203798,-0.00
 018115,0.00837840,0.00074551,0.00021268,-0.00021906,0.00220866,-0.0014
 3261,-0.00015822,0.00036980,-0.00010154,-0.00018720,0.00049580,-0.0007
 5490,-0.00703679,-0.00412623,0.00053095,-0.00077813,0.00038522,0.00031
 760,0.00008476,-0.00013942,-0.00014535,0.00000208,0.00009231,0.0000765
 9,-0.00009938,0.00000414,-0.00012263,0.00016921,-0.00075841,0.00002006
 ,-0.00005761,-0.00006313,0.00006675,-0.00025161,0.00089553,0.00009367,
 0.00044519,0.00046436,-0.00022153,0.00004381,0.00012061,0.00006338,-0.
 00080800,0.00003470,0.00025940,0.00015089,-0.00006250,-0.00004871,0.00
 002328,0.00001846,-0.00003955,-0.00002246,0.00006595,-0.00012109,0.000
 06456,-0.00003201,-0.00000847,0.00003625,-0.00007744,0.00000886,0.0000
 1743,0.00000598,0.00000836,0.00008266,-0.00005356,-0.00002245,-0.00002
 135,0.00000601,0.00002048,0.00009154,-0.00005003,-0.00003218,0.0000191
 2,0.00009958,0.00013946,-0.05274260,-0.05935158,0.02074403,-0.00201988
 ,-0.00213860,-0.00036147,-0.01029075,0.00265975,0.00449603,-0.00510673
 ,-0.01585755,-0.00234438,0.00002482,0.00007105,-0.00002800,-0.00009707
 ,0.00000083,-0.00014772,0.06462329,0.00737335,0.00683516,0.00135226,0.
 00811625,-0.00444766,0.00142025,0.00011001,0.00255526,-0.00135947,0.00
 031974,-0.00016565,0.00006743,0.00381011,0.00007685,-0.00048782,-0.005
 40918,0.00884024,-0.00340226,-0.00138080,0.00165651,0.00035412,0.00023
 660,-0.00023550,-0.00044581,0.00000074,0.00019579,0.00016280,-0.000114
 84,-0.00001591,-0.00025628,0.00012555,-0.00200557,0.00011556,-0.000114
 41,-0.00011956,0.00003082,-0.00052689,0.00075502,0.00004455,0.00061873
 ,0.00072658,-0.00021024,0.00019636,0.00008365,0.00006918,0.00238437,-0
 .00011483,0.00102706,0.00051067,-0.00023065,-0.00007988,-0.00001126,-0
 .00000458,-0.00006216,-0.00005020,0.00013695,-0.00012173,0.00011039,-0
 .00008540,-0.00000947,0.00011592,-0.00018432,0.00004298,-0.00000964,-0
 .00001458,0.00002582,0.00020637,-0.00010808,-0.00004788,-0.00009293,-0
 .00002262,0.00006458,0.00020773,-0.00010003,-0.00007811,0.00004992,0.0
 0025587,0.00025981,-0.08274971,-0.31271842,-0.00529019,-0.00473468,-0.
 00439714,-0.00019726,-0.01130602,0.00416738,0.00487855,0.00027029,0.00
 253583,-0.00094161,0.00015141,0.00003725,-0.00007231,-0.00001202,-0.00
 007350,-0.00091402,0.05750116,0.30230397,-0.00183446,-0.00269317,-0.01
 657789,0.00090101,0.00177859,-0.00053523,-0.00037191,0.00085917,0.0016
 8241,-0.00012640,-0.00002492,-0.00016081,-0.00033283,0.00049193,0.0017
 8482,0.00097258,-0.00087249,0.00140588,0.00015737,-0.00010929,0.000027
 82,-0.00006516,0.00000557,0.00005072,-0.00000563,-0.00001969,-0.000026
 57,0.00003128,-0.00000846,0.00002909,-0.00002089,0.00020488,-0.0000835
 5,0.00008281,-0.00001806,0.00006829,-0.00005420,-0.00023516,-0.0006912
 6,0.00002047,0.00004213,0.00006783,-0.00000910,-0.00006859,-0.00027426
 ,-0.00061774,-0.00027250,-0.00068433,-0.00003862,0.00002053,-0.0000337
 4,-0.00000377,0.00000188,0.00000215,-0.00000890,0.00001103,0.00000884,
 -0.00000895,0.00000858,-0.00000596,-0.00002073,0.00002680,-0.00000578,
 0.00000069,0.00000766,-0.00000762,-0.00002255,0.00000550,0.00000192,-0
 .00000913,0.00000690,-0.00002228,-0.00001420,0.00000860,-0.00000056,-0
 .00000692,0.00000432,-0.00003459,0.01115237,-0.04589471,-0.04969265,0.
 00062854,0.00055034,-0.00010426,0.00383113,-0.00068803,-0.00150380,0.0
 0780966,0.03454321,0.00098366,-0.00003455,0.00000418,0.00003607,-0.000
 05428,-0.00032283,0.00031162,-0.01384063,0.01390814,0.06141165,-0.0041
 4685,-0.00578073,0.00105887,-0.00124630,0.00147355,-0.00061406,-0.0006
 1983,-0.00056472,0.00026819,0.00013303,-0.00029304,0.00009507,-0.00060
 363,0.00035107,0.00003451,0.00208011,-0.00222476,0.00120446,0.00080018
 ,-0.00094244,-0.00065494,-0.00008650,0.00010576,0.00016863,-0.00000681
 ,-0.00014798,-0.00005434,-0.00045883,-0.00000535,-0.00008283,0.0009777
 9,0.00279767,-0.00022246,0.00007087,-0.00002070,0.00033195,0.00013109,
 0.00023979,-0.00010534,-0.00014098,-0.00014591,0.00003405,-0.00004748,
 -0.00004340,-0.00002962,0.00005407,-0.00027182,-0.00098869,-0.00013361
 ,0.00029947,0.00010182,0.00005376,0.00007433,0.00003787,0.00003200,-0.
 00013206,-0.00003658,-0.00001054,0.00011508,0.00002177,-0.00011266,0.0
 0008870,-0.00012043,0.00012658,0.00011537,0.00000266,-0.00020504,0.000
 03643,0.00008548,0.00014883,0.00016695,-0.00005774,-0.00022337,0.00000
 635,0.00012013,-0.00000382,-0.00025059,-0.00007031,-0.00811714,-0.0217
 8158,-0.00723370,0.00918185,0.00556039,0.00095303,-0.12977879,0.066931
 22,0.03736786,-0.00027638,-0.00692214,0.00101949,-0.00011852,0.0003566
 4,-0.00050766,0.01778853,-0.00915300,-0.00352092,0.01592388,0.01423149
 ,-0.00714007,0.12400153,0.00208260,0.00388122,-0.00024418,0.00116661,-
 0.00116591,0.00051663,0.00042462,0.00050968,-0.00031928,0.00006114,0.0
 0022811,-0.00014198,-0.00012654,0.00026298,-0.00016544,-0.00135969,0.0
 0042827,-0.00020196,-0.00098518,0.00078376,0.00071980,0.00007362,-0.00
 013413,-0.00016798,0.00000713,0.00015537,0.00007210,0.00038006,0.00003
 124,0.00004059,-0.00080279,-0.00286358,0.00031975,-0.00017180,0.000011
 05,-0.00032770,-0.00010200,-0.00011917,0.00009381,0.00011680,0.0001169
 2,-0.00003578,0.00002257,0.00010391,-0.00000436,-0.00101330,0.00016772
 ,0.00021806,0.00015648,-0.00028437,-0.00011913,-0.00002251,-0.00004492
 ,-0.00004848,-0.00004102,0.00012484,-0.00003502,0.00003505,-0.00010629
 ,-0.00001997,0.00010117,-0.00009785,0.00010781,-0.00009534,-0.00009274
 ,0.00000179,0.00019779,-0.00003573,-0.00008763,-0.00009706,-0.00013947
 ,0.00009311,0.00019678,-0.00001490,-0.00010457,0.00002307,0.00016747,0
 .00012791,-0.01477424,-0.01339608,0.01633595,-0.01326588,-0.00959014,-
 0.00237135,0.05594046,-0.09390987,-0.05642580,-0.00615261,0.01163867,-
 0.00147741,-0.00004898,-0.00041479,0.00011876,-0.00121476,-0.00281751,
 -0.00009110,0.00036852,-0.01357491,-0.00000357,-0.04049287,0.09465897,
 0.00219425,0.00337148,-0.00077925,0.00079636,-0.00070002,0.00032511,0.
 00025363,0.00037508,-0.00017651,0.00009198,0.00016523,-0.00006724,0.00
 010960,0.00022740,-0.00016330,-0.00056972,0.00047465,-0.00035546,-0.00
 062247,0.00061400,0.00053703,-0.00000451,-0.00010256,-0.00006714,-0.00
 000549,0.00008734,0.00004755,0.00037390,-0.00001078,0.00007363,-0.0007
 4846,-0.00214292,0.00016885,-0.00001152,-0.00003510,-0.00018924,-0.000
 10158,-0.00011142,0.00007645,0.00008774,0.00009963,-0.00001417,0.00001
 547,0.00007057,0.00000657,-0.00068399,-0.00002024,0.00056085,0.0000992
 9,-0.00021664,-0.00009909,-0.00001537,-0.00003465,-0.00004275,-0.00000
 577,0.00007827,-0.00001242,0.00001629,-0.00007439,-0.00002702,0.000058
 34,-0.00004409,0.00007862,-0.00009077,-0.00006911,-0.00000978,0.000142
 70,-0.00002378,-0.00006158,-0.00011293,-0.00010915,0.00004359,0.000155
 28,-0.00000607,-0.00008404,-0.00000211,0.00019164,0.00005614,-0.010362
 82,0.02465883,-0.00923986,-0.00955711,-0.00705404,-0.00163742,0.008329
 54,-0.04122815,-0.06808015,0.00375698,-0.00232023,-0.00396531,-0.00001
 438,-0.00022015,0.00048234,0.01965681,-0.01556956,-0.01086677,-0.00807
 334,-0.01032929,0.00254135,-0.02339407,0.03116859,0.08614819,-0.002727
 68,-0.00295976,-0.00003388,-0.00087130,0.00145227,-0.00061167,-0.00084
 704,-0.00054057,0.00027221,-0.00000801,-0.00050764,0.00029699,0.000864
 79,-0.00001557,0.00009008,0.00076905,-0.00085108,0.00054665,0.00270606
 ,-0.00234552,-0.00295109,-0.00013886,0.00006735,0.00028529,-0.00004413
 ,-0.00040678,-0.00016408,-0.00296828,-0.00015859,-0.00078451,0.0058113
 1,0.01554268,-0.00270914,0.00105835,-0.00013621,0.00312934,0.00002214,
 0.00016994,-0.00004246,-0.00013952,-0.00004855,0.00003059,0.00006196,-
 0.00019671,0.00003675,0.00217748,-0.00009746,-0.00037204,-0.00020697,0
 .00143311,0.00053301,0.00014149,0.00024804,0.00009994,0.00012279,-0.00
 031443,-0.00020319,0.00005944,0.00046769,0.00006543,-0.00043347,0.0002
 4233,-0.00057453,0.00066246,0.00057332,0.00003941,-0.00077836,-0.00008
 061,0.00041732,0.00028417,0.00074928,-0.00086659,-0.00021708,-0.000159
 86,0.00033742,-0.00018731,0.00005270,-0.00020784,0.00821903,-0.0131481
 8,-0.00658537,0.01210305,0.03495334,-0.00298781,-0.09223594,-0.0312869
 0,-0.00198445,0.00005776,-0.00091026,0.00074744,0.00291682,0.00716563,
 -0.00149873,0.00955263,-0.00049904,-0.00677080,0.00370942,0.00857539,-
 0.00081604,-0.02274909,0.01794468,0.01694530,0.07747329,-0.00096374,-0
 .00091988,0.00014651,-0.00009387,0.00060654,-0.00034616,-0.00050148,-0
 .00013990,0.00005580,0.00027138,-0.00030354,0.00003730,-0.00023716,0.0
 0057540,-0.00015615,0.00062265,-0.00135540,0.00111146,0.00011561,-0.00
 059916,-0.00034225,-0.00002145,-0.00000455,0.00005819,0.00001757,-0.00
 010294,-0.00000782,-0.00038462,-0.00009738,-0.00017067,0.00063916,0.00
 089165,0.00005220,-0.00005509,-0.00013904,0.00054845,-0.00000891,0.000
 10313,-0.00003109,-0.00003443,-0.00000740,0.00002278,0.00000272,0.0000
 1731,-0.00001629,0.00049173,-0.00083735,-0.00136007,0.00001478,0.00020
 913,0.00004503,0.00006128,0.00008902,-0.00000166,0.00001600,-0.0000815
 5,-0.00014556,0.00004359,0.00013599,0.00000072,-0.00012853,0.00005030,
 -0.00021147,0.00011260,0.00019768,0.00003650,-0.00027130,0.00004745,0.
 00015227,0.00011653,0.00015171,-0.00003801,-0.00006105,-0.00004487,0.0
 0013860,-0.00000226,-0.00010419,0.00008206,0.00387803,-0.00781211,-0.0
 0398520,0.00755978,-0.03334291,0.00925133,-0.03023920,-0.05428851,-0.0
 2207793,0.00007481,-0.00055924,-0.00000231,0.01397059,0.00936343,-0.00
 088971,-0.00107762,-0.00347707,0.00052373,0.00239504,0.00315552,-0.000
 75873,0.00275064,0.01893785,0.01394220,0.00440785,0.07350507,-0.000682
 76,-0.00025024,-0.00018239,-0.00011931,0.00025719,-0.00010590,-0.00018
 079,-0.00003803,0.00003387,0.00015223,-0.00004855,0.00000370,-0.000106
 52,0.00036869,-0.00013681,0.00063479,-0.00086661,0.00044605,0.00037169
 ,-0.00006385,-0.00039819,-0.00010159,-0.00003523,0.00006264,-0.0000313
 4,-0.00004200,-0.00002793,-0.00041752,0.00000259,-0.00015963,0.0008845
 1,0.00298798,0.00015850,0.00018321,-0.00016844,0.00078502,-0.00001334,
 0.00005187,-0.00000736,-0.00001691,0.00000268,0.00001162,0.00000078,0.
 00002034,0.00000108,0.00014942,-0.00084979,-0.00028546,-0.00001486,0.0
 0025649,0.00009359,0.00003936,0.00003966,-0.00001484,0.00002828,-0.000
 04832,-0.00008231,0.00001633,0.00003632,-0.00000479,-0.00005919,0.0000
 2284,-0.00004657,0.00010095,0.00007886,-0.00000297,-0.00010526,-0.0000
 4582,0.00002104,-0.00003879,0.00003293,-0.00021293,0.00014760,-0.00005
 735,-0.00002071,-0.00010505,0.00021648,-0.00006120,0.00161517,-0.00397
 335,-0.00213070,0.00527817,0.01496054,-0.01760460,0.02440262,-0.013669
 06,-0.05601120,0.00023433,-0.00025627,0.00017984,-0.00482150,-0.002505
 84,-0.00159463,-0.02592186,-0.00845147,0.00098215,0.00112441,0.0010842
 1,-0.00011559,0.00094462,0.01384000,0.00570601,-0.00454387,0.00528202,
 0.07268986,-0.00082031,-0.00131186,0.00004915,-0.00036263,-0.00032273,
 0.00026635,0.00043573,-0.00022080,0.00001967,-0.00101978,0.00033854,0.
 00004364,0.00172975,-0.00046331,0.00046756,0.00018254,0.00290838,-0.00
 145510,0.00833948,0.00190127,-0.00777964,0.00013392,0.00017280,-0.0008
 3337,0.00010553,0.00017208,-0.00108442,-0.01440390,-0.00700994,0.00015
 067,-0.01861833,0.02551873,-0.00036792,0.00308956,0.00194873,0.0057553
 8,0.00002163,-0.00007719,0.00006084,-0.00008357,-0.00001729,-0.0000430
 2,0.00011295,-0.00034340,0.00012367,-0.00131972,0.00065919,0.00183003,
 -0.00032744,0.00389615,0.00196333,-0.00007507,-0.00007630,0.00038323,-
 0.00023952,-0.00009323,0.00057905,0.00002019,0.00014077,0.00050503,0.0
 0013933,-0.00016841,0.00015638,0.00032042,0.00093151,-0.00061849,0.000
 10501,-0.00041661,0.00031768,0.00063396,0.00132504,-0.00272702,0.00026
 482,-0.00026896,-0.00041127,-0.00037746,0.00081921,-0.00099449,0.00104
 271,-0.00148404,-0.00048093,-0.08053384,-0.05390127,-0.00309823,0.0021
 4362,-0.00023721,-0.00090263,-0.00014321,-0.00005055,0.00006210,0.0156
 3721,0.02424832,-0.00222689,-0.00066708,-0.00029011,-0.00038451,0.0002
 7398,0.00129005,-0.00013024,-0.00241791,0.00146742,0.00129294,-0.00422
 046,-0.00348166,0.00097199,0.09089790,-0.00140061,-0.00250515,0.000476
 93,-0.00054522,0.00079416,-0.00019082,-0.00048655,-0.00056029,0.000092
 14,-0.00075627,-0.00045667,0.00046432,0.00217733,-0.00062849,0.0012550
 7,0.00041656,0.00159709,-0.00184244,0.00590566,-0.01158697,-0.01013725
 ,-0.00028636,0.00099551,-0.00110789,-0.00008013,0.00086449,-0.00162631
 ,-0.01006723,0.00920961,-0.00576477,0.02325951,0.02201014,-0.00224443,
 0.00224987,0.00015745,0.01376383,0.00000648,-0.00001284,0.00000688,-0.
 00017691,-0.00002536,-0.00004219,0.00020417,-0.00042522,0.00010228,0.0
 0033515,0.00115347,0.00037370,0.00037337,0.00501007,0.00131633,0.00028
 935,-0.00011753,0.00076387,-0.00036758,0.00005374,0.00059024,0.0000295
 8,-0.00033813,0.00073495,0.00037846,-0.00067811,0.00116778,0.00586285,
 0.00063539,0.00061693,0.00298525,-0.00115537,-0.00033792,0.00139222,0.
 00259863,-0.00438577,0.00074395,-0.00004646,-0.00207125,-0.00077110,0.
 00053588,-0.00130143,0.00275888,-0.00545456,-0.00178920,-0.01596272,-0
 .12266299,0.02448110,0.02447984,0.00227121,0.00136342,-0.00019658,-0.0
 0015084,0.00011700,-0.00120444,-0.00679310,0.00087372,0.00020275,-0.00
 024491,-0.00139051,0.00166351,0.00430108,-0.00049975,-0.00652781,0.006
 59429,0.00489743,-0.03938188,-0.00382019,-0.00817146,0.00249667,0.0988
 8096,-0.00000525,0.00089311,-0.00032245,0.00005392,0.00007899,-0.00004
 973,-0.00013295,0.00014401,-0.00001885,0.00034706,-0.00004827,-0.00005
 970,-0.00046387,0.00050580,-0.00030537,-0.00007405,-0.00177185,0.00096
 591,-0.00669991,-0.00435422,0.00450912,-0.00023686,-0.00081073,0.00047
 463,-0.00038551,-0.00063466,0.00038991,0.00003714,-0.00361250,0.002337
 14,-0.00405576,-0.01000056,-0.03060954,0.00650739,0.01063949,-0.005295
 55,-0.00001928,0.00005219,-0.00001974,0.00002764,0.00001664,0.00001371
 ,-0.00004920,0.00016227,-0.00003984,0.00142760,-0.00038844,-0.00074130
 ,0.00041755,-0.00214408,-0.00137190,0.00021469,0.00028407,-0.00027716,
 0.00041588,-0.00012301,-0.00073190,0.00013472,0.00031624,-0.00022490,-
 0.00044751,0.00044697,-0.00058439,-0.00138961,-0.00000099,-0.00027260,
 -0.00001900,0.00011222,0.00028049,-0.00054131,-0.00017629,-0.00183561,
 0.00062477,0.00004254,-0.00042033,-0.00008916,0.00024402,0.00027477,-0
 .00064108,0.00089777,0.00028185,-0.01471924,0.01299263,-0.02564035,-0.
 00645063,0.00005158,0.00081136,0.00007649,0.00005022,-0.00001899,0.005
 80480,0.00976053,-0.00303071,0.00012786,-0.00014087,0.00047466,-0.0001
 5501,-0.00060231,0.00014661,0.00098329,-0.00138196,-0.00091377,0.01083
 490,-0.00094604,-0.00196826,0.00853947,-0.01055451,0.06379274\\0.00000
 332,0.00000539,-0.00000020,-0.00000029,0.00000046,0.00000049,-0.000000
 45,-0.00000034,0.00000060,-0.00000038,0.00000037,0.00000047,-0.0000002
 1,0.00000018,-0.00000011,0.00000032,-0.00000056,0.00000082,0.00000019,
 0.00000018,-0.00000012,0.00000009,0.00000011,-0.00000026,-0.00000001,-
 0.00000010,-0.00000080,0.00000002,0.00000051,0.00000045,0.00000040,0.0
 0000019,-0.00000074,-0.00000030,0.00000023,-0.00000003,-0.00000007,-0.
 00000023,0.00000060,-0.00000023,-0.00000012,0.00000066,-0.00000016,0.,
 0.00000021,0.00000037,-0.00000016,-0.00000050,-0.00000014,0.00000014,-
 0.00000001,0.00000009,-0.00000017,-0.00000008,0.00000045,-0.00000025,0
 .00000021,0.00000019,0.00000003,-0.00000042,0.00000023,-0.00000008,-0.
 00000048,-0.00000009,0.00000020,-0.00000038,-0.00000002,0.00000007,-0.
 00000037,-0.00000030,0.00000024,-0.00000016,-0.00000024,0.00000028,-0.
 00000028,-0.00000029,0.00000019,-0.00000008,-0.00000262,-0.00000980,0.
 00000088,0.00000222,-0.00000086,-0.00000057,0.00000031,-0.00000052,-0.
 00000088,0.00000025,-0.00000105,-0.00000009,0.00000042,-0.00000082,0.0
 0000083,-0.00000021,-0.00000002,0.00000010,0.00000065,0.00000439,0.000
 00021,-0.00000151,0.00000067,0.00000115,-0.00000030,0.00000080,-0.0000
 0032,-0.00000173,0.00000046,-0.00000081\\\@


 Standing in the middle of the road is very dangerous;
 you get knocked down by the traffic from both sides.
                                -- Margaret Thatcher
 Job cpu time:       1 days  0 hours 41 minutes  1.1 seconds.
 Elapsed time:       0 days  0 hours 52 minutes 56.9 seconds.
 File lengths (MBytes):  RWF=   1056 Int=      0 D2E=      0 Chk=     28 Scr=      8
 Normal termination of Gaussian 16 at Sun Nov  6 00:25:08 2022.
