 Entering Gaussian System, Link 0=g16
 Input=NicPyrNs3h7.gjf
 Output=NicPyrNs3h7.log
 Initial command:
 /sw/contrib/gaussian/g16/A03/g16/l1.exe "/usr/lusers/gds001/Gau-21087.inp" -scrdir="/usr/lusers/gds001/"
 Entering Link 1 = /sw/contrib/gaussian/g16/A03/g16/l1.exe PID=     21088.
  
 Copyright (c) 1988,1990,1992,1993,1995,1998,2003,2009,2016,
            Gaussian, Inc.  All Rights Reserved.
  
 This is part of the Gaussian(R) 16 program.  It is based on
 the Gaussian(R) 09 system (copyright 2009, Gaussian, Inc.),
 the Gaussian(R) 03 system (copyright 2003, Gaussian, Inc.),
 the Gaussian(R) 98 system (copyright 1998, Gaussian, Inc.),
 the Gaussian(R) 94 system (copyright 1995, Gaussian, Inc.),
 the Gaussian 92(TM) system (copyright 1992, Gaussian, Inc.),
 the Gaussian 90(TM) system (copyright 1990, Gaussian, Inc.),
 the Gaussian 88(TM) system (copyright 1988, Gaussian, Inc.),
 the Gaussian 86(TM) system (copyright 1986, Carnegie Mellon
 University), and the Gaussian 82(TM) system (copyright 1983,
 Carnegie Mellon University). Gaussian is a federally registered
 trademark of Gaussian, Inc.
  
 This software contains proprietary and confidential information,
 including trade secrets, belonging to Gaussian, Inc.
  
 This software is provided under written license and may be
 used, copied, transmitted, or stored only in accord with that
 written license.
  
 The following legend is applicable only to US Government
 contracts under FAR:
  
                    RESTRICTED RIGHTS LEGEND
  
 Use, reproduction and disclosure by the US Government is
 subject to restrictions as set forth in subparagraphs (a)
 and (c) of the Commercial Computer Software - Restricted
 Rights clause in FAR 52.227-19.
  
 Gaussian, Inc.
 340 Quinnipiac St., Bldg. 40, Wallingford CT 06492
  
  
 ---------------------------------------------------------------
 Warning -- This program may not be used in any manner that
 competes with the business of Gaussian, Inc. or will provide
 assistance to any competitor of Gaussian, Inc.  The licensee
 of this program is prohibited from giving any competitor of
 Gaussian, Inc. access to this program.  By using this program,
 the user acknowledges that Gaussian, Inc. is engaged in the
 business of creating and licensing software in the field of
 computational chemistry and represents and warrants to the
 licensee that it is not a competitor of Gaussian, Inc. and that
 it will not use this program in any manner prohibited above.
 ---------------------------------------------------------------
  

 Cite this work as:
 Gaussian 16, Revision A.03,
 M. J. Frisch, G. W. Trucks, H. B. Schlegel, G. E. Scuseria, 
 M. A. Robb, J. R. Cheeseman, G. Scalmani, V. Barone, 
 G. A. Petersson, H. Nakatsuji, X. Li, M. Caricato, A. V. Marenich, 
 J. Bloino, B. G. Janesko, R. Gomperts, B. Mennucci, H. P. Hratchian, 
 J. V. Ortiz, A. F. Izmaylov, J. L. Sonnenberg, D. Williams-Young, 
 F. Ding, F. Lipparini, F. Egidi, J. Goings, B. Peng, A. Petrone, 
 T. Henderson, D. Ranasinghe, V. G. Zakrzewski, J. Gao, N. Rega, 
 G. Zheng, W. Liang, M. Hada, M. Ehara, K. Toyota, R. Fukuda, 
 J. Hasegawa, M. Ishida, T. Nakajima, Y. Honda, O. Kitao, H. Nakai, 
 T. Vreven, K. Throssell, J. A. Montgomery, Jr., J. E. Peralta, 
 F. Ogliaro, M. J. Bearpark, J. J. Heyd, E. N. Brothers, K. N. Kudin, 
 V. N. Staroverov, T. A. Keith, R. Kobayashi, J. Normand, 
 K. Raghavachari, A. P. Rendell, J. C. Burant, S. S. Iyengar, 
 J. Tomasi, M. Cossi, J. M. Millam, M. Klene, C. Adamo, R. Cammi, 
 J. W. Ochterski, R. L. Martin, K. Morokuma, O. Farkas, 
 J. B. Foresman, and D. J. Fox, Gaussian, Inc., Wallingford CT, 2016.
 
 ******************************************
 Gaussian 16:  ES64L-G16RevA.03 25-Dec-2016
                21-Jul-2020 
 ******************************************
 %nprocshared=28
 Will use up to   28 processors via shared memory.
 %mem=41GB
 %chk=NicPyrNs3h7.chk
 ------------------------------------------------
 # wB97XD/aug-cc-pVDZ Opt=(CalcFC,ReCalc=50) Freq
 ------------------------------------------------
 1/10=4,18=20,19=15,26=3,38=1,71=50/1,3;
 2/9=110,12=2,17=6,18=5,40=1/2;
 3/5=16,7=10,11=2,25=1,30=1,71=2,74=-58,140=1/1,2,3;
 4//1;
 5/5=2,38=5/2;
 8/6=4,10=90,11=11/1;
 11/6=1,8=1,9=11,15=111,16=1/1,2,10;
 10/6=1,13=1/2;
 6/7=2,8=2,9=2,10=2,28=1/1;
 7/10=1,18=20,25=1/1,2,3,16;
 1/10=4,18=20,19=15,26=3,71=50/3(2);
 2/9=110/2;
 99//99;
 2/9=110/2;
 3/5=16,7=10,11=2,25=1,30=1,71=1,74=-58/1,2,3;
 4/5=5,16=3,69=1/1;
 5/5=2,38=5/2;
 7//1,2,3,16;
 1/18=20,19=15,26=3,71=50/3(-5);
 2/9=110/2;
 6/7=2,8=2,9=2,10=2,19=2,28=1/1;
 99/9=1/99;
 ---------------------------
 p-Pyr Nicotine, N syn, 3H2O
 ---------------------------
 Symbolic Z-matrix:
 Charge =  1 Multiplicity = 1
 C                    -0.89948  -0.5689   -0.57436 
 C                     0.48207  -0.72929  -0.44853 
 C                     0.94192  -1.88523   0.18456 
 C                     0.01906  -2.80694   0.66755 
 C                    -1.33798  -2.54068   0.50446 
 N                    -1.79132  -1.44272  -0.10745 
 C                     1.38963   0.35783  -0.9821 
 C                     2.85147  -0.03049  -1.243 
 C                     3.60973   0.23753   0.08253 
 C                     2.61224   0.97696   0.98905 
 N                     1.53671   1.44586   0.06136 
 O                    -0.71876   2.19769   1.25027 
 H                     3.02726   1.83572   1.5235 
 H                     4.5017    0.84616  -0.09732 
 H                     3.94524  -0.6871    0.5632 
 H                     2.93131  -1.06723  -1.58233 
 H                     3.25332   0.59832  -2.04567 
 H                     2.13346   0.31065   1.71344 
 H                     0.91764   0.81751  -1.8571 
 H                    -1.31047   0.31245  -1.07303 
 H                    -2.09149  -3.23587   0.87551 
 H                     0.34255  -3.72092   1.16151 
 H                     2.00742  -2.08316   0.29971 
 C                     1.92462   2.73432  -0.56269 
 H                     0.63091   1.67363   0.5663 
 H                    -1.53073   2.26393   0.685 
 H                    -1.01032   2.13028   2.16182 
 H                    -3.48849  -0.67987  -0.19073 
 O                    -4.16238   0.03151  -0.2058 
 H                    -4.89149  -0.28185  -0.7455 
 O                    -2.72248   2.26918  -0.45796 
 H                    -3.36377   1.52174  -0.40163 
 H                    -3.23871   3.06458  -0.60702 
 H                     1.14045   3.07025  -1.2761 
 H                     2.89238   2.67312  -1.10348 
 H                     2.01834   3.52508   0.21401 
 
 Add virtual bond connecting atoms H25        and O12        Dist= 3.03D+00.
 Add virtual bond connecting atoms O31        and H26        Dist= 3.12D+00.
 Add virtual bond connecting atoms H32        and O29        Dist= 3.22D+00.

 GradGradGradGradGradGradGradGradGradGradGradGradGradGradGradGradGradGrad
 Berny optimization.
 Initialization pass.
                           ----------------------------
                           !    Initial Parameters    !
                           ! (Angstroms and Degrees)  !
 --------------------------                            --------------------------
 ! Name  Definition              Value          Derivative Info.                !
 --------------------------------------------------------------------------------
 ! R1    R(1,2)                  1.3965         calculate D2E/DX2 analytically  !
 ! R2    R(1,6)                  1.333          calculate D2E/DX2 analytically  !
 ! R3    R(1,20)                 1.0929         calculate D2E/DX2 analytically  !
 ! R4    R(2,3)                  1.3959         calculate D2E/DX2 analytically  !
 ! R5    R(2,7)                  1.5133         calculate D2E/DX2 analytically  !
 ! R6    R(3,4)                  1.3909         calculate D2E/DX2 analytically  !
 ! R7    R(3,23)                 1.0898         calculate D2E/DX2 analytically  !
 ! R8    R(4,5)                  1.3925         calculate D2E/DX2 analytically  !
 ! R9    R(4,22)                 1.0881         calculate D2E/DX2 analytically  !
 ! R10   R(5,6)                  1.3362         calculate D2E/DX2 analytically  !
 ! R11   R(5,21)                 1.0903         calculate D2E/DX2 analytically  !
 ! R12   R(7,8)                  1.5349         calculate D2E/DX2 analytically  !
 ! R13   R(7,11)                 1.5147         calculate D2E/DX2 analytically  !
 ! R14   R(7,19)                 1.0953         calculate D2E/DX2 analytically  !
 ! R15   R(8,9)                  1.5504         calculate D2E/DX2 analytically  !
 ! R16   R(8,16)                 1.0938         calculate D2E/DX2 analytically  !
 ! R17   R(8,17)                 1.096          calculate D2E/DX2 analytically  !
 ! R18   R(9,10)                 1.5374         calculate D2E/DX2 analytically  !
 ! R19   R(9,14)                 1.0947         calculate D2E/DX2 analytically  !
 ! R20   R(9,15)                 1.0948         calculate D2E/DX2 analytically  !
 ! R21   R(10,11)                1.4957         calculate D2E/DX2 analytically  !
 ! R22   R(10,13)                1.0933         calculate D2E/DX2 analytically  !
 ! R23   R(10,18)                1.0945         calculate D2E/DX2 analytically  !
 ! R24   R(11,24)                1.4833         calculate D2E/DX2 analytically  !
 ! R25   R(11,25)                1.0618         calculate D2E/DX2 analytically  !
 ! R26   R(12,25)                1.6013         calculate D2E/DX2 analytically  !
 ! R27   R(12,26)                0.9916         calculate D2E/DX2 analytically  !
 ! R28   R(12,27)                0.9594         calculate D2E/DX2 analytically  !
 ! R29   R(24,34)                1.1121         calculate D2E/DX2 analytically  !
 ! R30   R(24,35)                1.1103         calculate D2E/DX2 analytically  !
 ! R31   R(24,36)                1.1124         calculate D2E/DX2 analytically  !
 ! R32   R(26,31)                1.6513         calculate D2E/DX2 analytically  !
 ! R33   R(28,29)                0.98           calculate D2E/DX2 analytically  !
 ! R34   R(29,30)                0.9597         calculate D2E/DX2 analytically  !
 ! R35   R(29,32)                1.702          calculate D2E/DX2 analytically  !
 ! R36   R(31,32)                0.9865         calculate D2E/DX2 analytically  !
 ! R37   R(31,33)                0.9599         calculate D2E/DX2 analytically  !
 ! A1    A(2,1,6)              123.7123         calculate D2E/DX2 analytically  !
 ! A2    A(2,1,20)             120.3826         calculate D2E/DX2 analytically  !
 ! A3    A(6,1,20)             115.9043         calculate D2E/DX2 analytically  !
 ! A4    A(1,2,3)              117.5087         calculate D2E/DX2 analytically  !
 ! A5    A(1,2,7)              118.6207         calculate D2E/DX2 analytically  !
 ! A6    A(3,2,7)              123.8643         calculate D2E/DX2 analytically  !
 ! A7    A(2,3,4)              119.189          calculate D2E/DX2 analytically  !
 ! A8    A(2,3,23)             121.359          calculate D2E/DX2 analytically  !
 ! A9    A(4,3,23)             119.4499         calculate D2E/DX2 analytically  !
 ! A10   A(3,4,5)              118.6357         calculate D2E/DX2 analytically  !
 ! A11   A(3,4,22)             121.1324         calculate D2E/DX2 analytically  !
 ! A12   A(5,4,22)             120.2317         calculate D2E/DX2 analytically  !
 ! A13   A(4,5,6)              122.7776         calculate D2E/DX2 analytically  !
 ! A14   A(4,5,21)             120.7792         calculate D2E/DX2 analytically  !
 ! A15   A(6,5,21)             116.4428         calculate D2E/DX2 analytically  !
 ! A16   A(1,6,5)              118.1676         calculate D2E/DX2 analytically  !
 ! A17   A(2,7,8)              116.7027         calculate D2E/DX2 analytically  !
 ! A18   A(2,7,11)             109.351          calculate D2E/DX2 analytically  !
 ! A19   A(2,7,19)             108.9484         calculate D2E/DX2 analytically  !
 ! A20   A(8,7,11)             101.9086         calculate D2E/DX2 analytically  !
 ! A21   A(8,7,19)             112.3836         calculate D2E/DX2 analytically  !
 ! A22   A(11,7,19)            106.9005         calculate D2E/DX2 analytically  !
 ! A23   A(7,8,9)              106.0656         calculate D2E/DX2 analytically  !
 ! A24   A(7,8,16)             111.2266         calculate D2E/DX2 analytically  !
 ! A25   A(7,8,17)             109.1805         calculate D2E/DX2 analytically  !
 ! A26   A(9,8,16)             113.1656         calculate D2E/DX2 analytically  !
 ! A27   A(9,8,17)             110.3438         calculate D2E/DX2 analytically  !
 ! A28   A(16,8,17)            106.8485         calculate D2E/DX2 analytically  !
 ! A29   A(8,9,10)             105.6611         calculate D2E/DX2 analytically  !
 ! A30   A(8,9,14)             110.7407         calculate D2E/DX2 analytically  !
 ! A31   A(8,9,15)             112.2871         calculate D2E/DX2 analytically  !
 ! A32   A(10,9,14)            110.9856         calculate D2E/DX2 analytically  !
 ! A33   A(10,9,15)            110.2534         calculate D2E/DX2 analytically  !
 ! A34   A(14,9,15)            106.977          calculate D2E/DX2 analytically  !
 ! A35   A(9,10,11)            104.573          calculate D2E/DX2 analytically  !
 ! A36   A(9,10,13)            114.8178         calculate D2E/DX2 analytically  !
 ! A37   A(9,10,18)            112.4131         calculate D2E/DX2 analytically  !
 ! A38   A(11,10,13)           109.263          calculate D2E/DX2 analytically  !
 ! A39   A(11,10,18)           106.6653         calculate D2E/DX2 analytically  !
 ! A40   A(13,10,18)           108.7045         calculate D2E/DX2 analytically  !
 ! A41   A(7,11,10)            105.7775         calculate D2E/DX2 analytically  !
 ! A42   A(7,11,24)            111.0725         calculate D2E/DX2 analytically  !
 ! A43   A(7,11,25)            113.5085         calculate D2E/DX2 analytically  !
 ! A44   A(10,11,24)           110.1942         calculate D2E/DX2 analytically  !
 ! A45   A(10,11,25)           112.6895         calculate D2E/DX2 analytically  !
 ! A46   A(24,11,25)           103.7005         calculate D2E/DX2 analytically  !
 ! A47   A(25,12,26)           117.9414         calculate D2E/DX2 analytically  !
 ! A48   A(25,12,27)           129.7155         calculate D2E/DX2 analytically  !
 ! A49   A(26,12,27)           107.3068         calculate D2E/DX2 analytically  !
 ! A50   A(11,24,34)           110.3578         calculate D2E/DX2 analytically  !
 ! A51   A(11,24,35)           112.6435         calculate D2E/DX2 analytically  !
 ! A52   A(11,24,36)           110.2304         calculate D2E/DX2 analytically  !
 ! A53   A(34,24,35)           108.5904         calculate D2E/DX2 analytically  !
 ! A54   A(34,24,36)           107.0136         calculate D2E/DX2 analytically  !
 ! A55   A(35,24,36)           107.8092         calculate D2E/DX2 analytically  !
 ! A56   A(28,29,30)           107.0996         calculate D2E/DX2 analytically  !
 ! A57   A(28,29,32)           108.3414         calculate D2E/DX2 analytically  !
 ! A58   A(30,29,32)           125.2848         calculate D2E/DX2 analytically  !
 ! A59   A(26,31,32)           115.2935         calculate D2E/DX2 analytically  !
 ! A60   A(26,31,33)           119.8852         calculate D2E/DX2 analytically  !
 ! A61   A(32,31,33)           106.6848         calculate D2E/DX2 analytically  !
 ! A62   L(11,25,12,1,-1)      184.1577         calculate D2E/DX2 analytically  !
 ! A63   L(12,26,31,1,-1)      172.8197         calculate D2E/DX2 analytically  !
 ! A64   L(29,32,31,1,-1)      167.8428         calculate D2E/DX2 analytically  !
 ! A65   L(11,25,12,1,-2)      185.7169         calculate D2E/DX2 analytically  !
 ! A66   L(12,26,31,1,-2)      186.4902         calculate D2E/DX2 analytically  !
 ! A67   L(29,32,31,1,-2)      184.1414         calculate D2E/DX2 analytically  !
 ! D1    D(6,1,2,3)              1.0961         calculate D2E/DX2 analytically  !
 ! D2    D(6,1,2,7)           -178.023          calculate D2E/DX2 analytically  !
 ! D3    D(20,1,2,3)          -179.2379         calculate D2E/DX2 analytically  !
 ! D4    D(20,1,2,7)             1.643          calculate D2E/DX2 analytically  !
 ! D5    D(2,1,6,5)             -0.6635         calculate D2E/DX2 analytically  !
 ! D6    D(20,1,6,5)           179.6568         calculate D2E/DX2 analytically  !
 ! D7    D(1,2,3,4)             -0.6393         calculate D2E/DX2 analytically  !
 ! D8    D(1,2,3,23)           178.8229         calculate D2E/DX2 analytically  !
 ! D9    D(7,2,3,4)            178.4295         calculate D2E/DX2 analytically  !
 ! D10   D(7,2,3,23)            -2.1083         calculate D2E/DX2 analytically  !
 ! D11   D(1,2,7,8)           -160.8302         calculate D2E/DX2 analytically  !
 ! D12   D(1,2,7,11)            84.2424         calculate D2E/DX2 analytically  !
 ! D13   D(1,2,7,19)           -32.2668         calculate D2E/DX2 analytically  !
 ! D14   D(3,2,7,8)             20.1107         calculate D2E/DX2 analytically  !
 ! D15   D(3,2,7,11)           -94.8167         calculate D2E/DX2 analytically  !
 ! D16   D(3,2,7,19)           148.6741         calculate D2E/DX2 analytically  !
 ! D17   D(2,3,4,5)             -0.1603         calculate D2E/DX2 analytically  !
 ! D18   D(2,3,4,22)           179.6791         calculate D2E/DX2 analytically  !
 ! D19   D(23,3,4,5)          -179.6328         calculate D2E/DX2 analytically  !
 ! D20   D(23,3,4,22)            0.2066         calculate D2E/DX2 analytically  !
 ! D21   D(3,4,5,6)              0.6296         calculate D2E/DX2 analytically  !
 ! D22   D(3,4,5,21)          -179.5915         calculate D2E/DX2 analytically  !
 ! D23   D(22,4,5,6)          -179.2113         calculate D2E/DX2 analytically  !
 ! D24   D(22,4,5,21)            0.5676         calculate D2E/DX2 analytically  !
 ! D25   D(4,5,6,1)             -0.227          calculate D2E/DX2 analytically  !
 ! D26   D(21,5,6,1)           179.9851         calculate D2E/DX2 analytically  !
 ! D27   D(2,7,8,9)            -89.4448         calculate D2E/DX2 analytically  !
 ! D28   D(2,7,8,16)            33.9928         calculate D2E/DX2 analytically  !
 ! D29   D(2,7,8,17)           151.6592         calculate D2E/DX2 analytically  !
 ! D30   D(11,7,8,9)            29.5774         calculate D2E/DX2 analytically  !
 ! D31   D(11,7,8,16)          153.015          calculate D2E/DX2 analytically  !
 ! D32   D(11,7,8,17)          -89.3186         calculate D2E/DX2 analytically  !
 ! D33   D(19,7,8,9)           143.6671         calculate D2E/DX2 analytically  !
 ! D34   D(19,7,8,16)          -92.8953         calculate D2E/DX2 analytically  !
 ! D35   D(19,7,8,17)           24.7711         calculate D2E/DX2 analytically  !
 ! D36   D(2,7,11,10)           83.5026         calculate D2E/DX2 analytically  !
 ! D37   D(2,7,11,24)         -156.94           calculate D2E/DX2 analytically  !
 ! D38   D(2,7,11,25)          -40.5549         calculate D2E/DX2 analytically  !
 ! D39   D(8,7,11,10)          -40.6089         calculate D2E/DX2 analytically  !
 ! D40   D(8,7,11,24)           78.9485         calculate D2E/DX2 analytically  !
 ! D41   D(8,7,11,25)         -164.6664         calculate D2E/DX2 analytically  !
 ! D42   D(19,7,11,10)        -158.6967         calculate D2E/DX2 analytically  !
 ! D43   D(19,7,11,24)         -39.1393         calculate D2E/DX2 analytically  !
 ! D44   D(19,7,11,25)          77.2458         calculate D2E/DX2 analytically  !
 ! D45   D(7,8,9,10)            -8.722          calculate D2E/DX2 analytically  !
 ! D46   D(7,8,9,14)          -128.9792         calculate D2E/DX2 analytically  !
 ! D47   D(7,8,9,15)           111.5067         calculate D2E/DX2 analytically  !
 ! D48   D(16,8,9,10)         -130.9331         calculate D2E/DX2 analytically  !
 ! D49   D(16,8,9,14)          108.8098         calculate D2E/DX2 analytically  !
 ! D50   D(16,8,9,15)          -10.7043         calculate D2E/DX2 analytically  !
 ! D51   D(17,8,9,10)          109.4046         calculate D2E/DX2 analytically  !
 ! D52   D(17,8,9,14)          -10.8525         calculate D2E/DX2 analytically  !
 ! D53   D(17,8,9,15)         -130.3666         calculate D2E/DX2 analytically  !
 ! D54   D(8,9,10,11)          -16.0319         calculate D2E/DX2 analytically  !
 ! D55   D(8,9,10,13)         -135.7531         calculate D2E/DX2 analytically  !
 ! D56   D(8,9,10,18)           99.293          calculate D2E/DX2 analytically  !
 ! D57   D(14,9,10,11)         104.0647         calculate D2E/DX2 analytically  !
 ! D58   D(14,9,10,13)         -15.6564         calculate D2E/DX2 analytically  !
 ! D59   D(14,9,10,18)        -140.6104         calculate D2E/DX2 analytically  !
 ! D60   D(15,9,10,11)        -137.5841         calculate D2E/DX2 analytically  !
 ! D61   D(15,9,10,13)         102.6948         calculate D2E/DX2 analytically  !
 ! D62   D(15,9,10,18)         -22.2592         calculate D2E/DX2 analytically  !
 ! D63   D(9,10,11,7)           35.6185         calculate D2E/DX2 analytically  !
 ! D64   D(9,10,11,24)         -84.5153         calculate D2E/DX2 analytically  !
 ! D65   D(9,10,11,25)         160.1878         calculate D2E/DX2 analytically  !
 ! D66   D(13,10,11,7)         159.0034         calculate D2E/DX2 analytically  !
 ! D67   D(13,10,11,24)         38.8696         calculate D2E/DX2 analytically  !
 ! D68   D(13,10,11,25)        -76.4272         calculate D2E/DX2 analytically  !
 ! D69   D(18,10,11,7)         -83.66           calculate D2E/DX2 analytically  !
 ! D70   D(18,10,11,24)        156.2062         calculate D2E/DX2 analytically  !
 ! D71   D(18,10,11,25)         40.9093         calculate D2E/DX2 analytically  !
 ! D72   D(7,11,12,26)         -39.3178         calculate D2E/DX2 analytically  !
 ! D73   D(7,11,12,27)         115.4118         calculate D2E/DX2 analytically  !
 ! D74   D(10,11,12,26)       -162.8576         calculate D2E/DX2 analytically  !
 ! D75   D(10,11,12,27)         -8.1279         calculate D2E/DX2 analytically  !
 ! D76   D(24,11,12,26)         79.5397         calculate D2E/DX2 analytically  !
 ! D77   D(24,11,12,27)       -125.7306         calculate D2E/DX2 analytically  !
 ! D78   D(7,11,24,34)          61.4207         calculate D2E/DX2 analytically  !
 ! D79   D(7,11,24,35)         -60.1283         calculate D2E/DX2 analytically  !
 ! D80   D(7,11,24,36)         179.4134         calculate D2E/DX2 analytically  !
 ! D81   D(10,11,24,34)        178.3055         calculate D2E/DX2 analytically  !
 ! D82   D(10,11,24,35)         56.7566         calculate D2E/DX2 analytically  !
 ! D83   D(10,11,24,36)        -63.7018         calculate D2E/DX2 analytically  !
 ! D84   D(25,11,24,34)        -60.8503         calculate D2E/DX2 analytically  !
 ! D85   D(25,11,24,35)        177.6008         calculate D2E/DX2 analytically  !
 ! D86   D(25,11,24,36)         57.1424         calculate D2E/DX2 analytically  !
 ! D87   D(25,12,31,32)        101.1487         calculate D2E/DX2 analytically  !
 ! D88   D(25,12,31,33)       -125.8129         calculate D2E/DX2 analytically  !
 ! D89   D(27,12,31,32)        -55.1382         calculate D2E/DX2 analytically  !
 ! D90   D(27,12,31,33)         77.9002         calculate D2E/DX2 analytically  !
 ! D91   D(28,29,31,26)        -50.4363         calculate D2E/DX2 analytically  !
 ! D92   D(28,29,31,33)        172.2184         calculate D2E/DX2 analytically  !
 ! D93   D(30,29,31,26)       -176.5153         calculate D2E/DX2 analytically  !
 ! D94   D(30,29,31,33)         46.1394         calculate D2E/DX2 analytically  !
 --------------------------------------------------------------------------------
 Trust Radius=3.00D-01 FncErr=1.00D-07 GrdErr=1.00D-06 EigMax=2.50D+02 EigMin=1.00D-04
 Number of steps in this run=    208 maximum allowed number of steps=    216.
 GradGradGradGradGradGradGradGradGradGradGradGradGradGradGradGradGradGrad

                          Input orientation:                          
 ---------------------------------------------------------------------
 Center     Atomic      Atomic             Coordinates (Angstroms)
 Number     Number       Type             X           Y           Z
 ---------------------------------------------------------------------
      1          6           0       -0.899475   -0.568904   -0.574360
      2          6           0        0.482070   -0.729292   -0.448525
      3          6           0        0.941919   -1.885230    0.184556
      4          6           0        0.019061   -2.806935    0.667550
      5          6           0       -1.337981   -2.540679    0.504461
      6          7           0       -1.791317   -1.442723   -0.107449
      7          6           0        1.389632    0.357831   -0.982100
      8          6           0        2.851474   -0.030486   -1.242995
      9          6           0        3.609729    0.237527    0.082532
     10          6           0        2.612244    0.976958    0.989046
     11          7           0        1.536706    1.445857    0.061355
     12          8           0       -0.718764    2.197689    1.250267
     13          1           0        3.027264    1.835718    1.523496
     14          1           0        4.501704    0.846156   -0.097319
     15          1           0        3.945238   -0.687100    0.563196
     16          1           0        2.931313   -1.067229   -1.582329
     17          1           0        3.253319    0.598317   -2.045669
     18          1           0        2.133457    0.310652    1.713441
     19          1           0        0.917638    0.817511   -1.857103
     20          1           0       -1.310465    0.312449   -1.073032
     21          1           0       -2.091485   -3.235868    0.875508
     22          1           0        0.342552   -3.720918    1.161509
     23          1           0        2.007416   -2.083155    0.299706
     24          6           0        1.924623    2.734323   -0.562686
     25          1           0        0.630905    1.673633    0.566298
     26          1           0       -1.530734    2.263933    0.684996
     27          1           0       -1.010315    2.130280    2.161821
     28          1           0       -3.488488   -0.679869   -0.190726
     29          8           0       -4.162383    0.031512   -0.205796
     30          1           0       -4.891489   -0.281854   -0.745504
     31          8           0       -2.722478    2.269176   -0.457961
     32          1           0       -3.363769    1.521737   -0.401627
     33          1           0       -3.238713    3.064583   -0.607019
     34          1           0        1.140449    3.070248   -1.276100
     35          1           0        2.892383    2.673121   -1.103482
     36          1           0        2.018336    3.525082    0.214008
 ---------------------------------------------------------------------
                    Distance matrix (angstroms):
                    1          2          3          4          5
     1  C    0.000000
     2  C    1.396505   0.000000
     3  C    2.387342   1.395867   0.000000
     4  C    2.719344   2.403456   1.390860   0.000000
     5  C    2.289987   2.738958   2.393720   1.392499   0.000000
     6  N    1.333022   2.406991   2.784180   2.395656   1.336209
     7  C    2.503018   1.513343   2.567656   3.823029   4.248658
     8  C    3.847933   2.594916   3.020658   4.402433   5.187119
     9  C    4.627608   3.316476   3.410823   4.743827   5.690016
    10  C    4.143199   3.084727   3.410177   4.598457   5.311579
    11  N    3.224651   2.470528   3.386014   4.555981   4.934839
    12  O    3.319030   3.590977   4.534737   5.092171   4.836506
    13  H    5.059890   4.116571   4.470669   5.597871   6.264714
    14  H    5.603811   4.331609   4.495775   5.833026   6.777515
    15  H    4.977876   3.608170   3.255581   4.463122   5.599251
    16  H    3.992401   2.720019   2.783648   4.070595   4.975200
    17  H    4.557725   3.463125   4.060108   5.423811   6.118537
    18  H    3.899529   2.912501   2.929019   3.909464   4.652161
    19  H    2.620968   2.136916   3.387295   4.507541   4.684255
    20  H    1.092872   2.165275   3.388887   3.811538   3.260304
    21  H    3.261242   3.828730   3.391633   2.163708   1.090290
    22  H    3.806713   3.400221   2.164123   1.088121   2.156123
    23  H    3.392191   2.172435   1.089825   2.147725   3.382741
    24  C    4.345914   3.753747   4.781668   5.987502   6.293570
    25  H    2.944849   2.612674   3.592765   4.523284   4.651963
    26  H    3.163768   3.780958   4.855925   5.302440   4.811865
    27  H    3.845070   4.149490   4.883146   5.260091   4.967098
    28  H    2.619633   3.979225   4.606760   4.190936   2.927555
    29  O    3.338099   4.712609   5.466276   5.128741   3.885599
    30  H    4.005979   5.400327   6.120823   5.699672   4.392280
    31  O    3.375142   4.388625   5.576713   5.877900   5.096841
    32  H    3.236257   4.456435   5.521774   5.596792   4.629043
    33  H    4.321496   5.316280   6.527245   6.834643   6.022220
    34  H    4.230503   3.943964   5.170077   6.290991   6.387137
    35  H    5.016860   4.220781   5.122687   6.436113   6.903997
    36  H    5.088798   4.571516   5.516432   6.655617   6.938493
                    6          7          8          9         10
     6  N    0.000000
     7  C    3.758383   0.000000
     8  C    4.983913   1.534874   0.000000
     9  C    5.659561   2.465105   1.550420   0.000000
    10  C    5.142811   2.400732   2.460525   1.537369   0.000000
    11  N    4.410003   1.514671   2.368445   2.399570   1.495747
    12  O    4.030678   3.579647   4.891597   4.893025   3.557251
    13  H    6.052015   3.338263   3.341720   2.229318   1.093319
    14  H    6.696356   3.272047   2.191879   1.094712   2.183428
    15  H    5.824843   3.164007   2.211286   1.094778   2.174238
    16  H    4.961804   2.183541   1.093781   2.221351   3.300375
    17  H    5.776755   2.159246   1.095974   2.187793   3.124715
    18  H    4.668385   2.796684   3.061444   2.201043   1.094508
    19  H    3.938069   1.095315   2.199079   3.368370   3.316275
    20  H    2.060145   2.702009   4.179501   5.054627   4.481226
    21  H    2.066803   5.336999   6.260621   6.722881   6.315525
    22  H    3.369544   4.725212   5.069084   5.244800   5.220276
    23  H    3.873797   2.825437   2.702926   2.828451   3.194573
    24  C    5.609203   2.471808   2.994335   3.080565   2.443159
    25  H    4.004094   2.168995   3.332940   3.342128   2.142376
    26  H    3.799365   3.865355   5.308979   5.558205   4.348910
    27  H    4.304172   4.334231   5.583466   5.408397   3.978503
    28  H    1.862598   5.049668   6.459418   7.162470   6.430853
    29  O    2.793742   5.615514   7.090403   7.780186   6.943852
    30  H    3.371320   6.318042   7.762999   8.557225   7.803799
    31  O    3.842930   4.564801   6.080597   6.672074   5.676523
    32  H    3.368556   4.928128   6.461156   7.107269   6.159828
    33  H    4.760287   5.374827   6.861071   7.441027   6.413992
    34  H    5.507078   2.739660   3.541646   3.995940   3.417445
    35  H    6.314214   2.762890   2.707514   2.802380   2.708158
    36  H    6.268642   3.443461   3.931799   3.654838   2.728800
                   11         12         13         14         15
    11  N    0.000000
    12  O    2.658178   0.000000
    13  H    2.124055   3.773381   0.000000
    14  H    3.029197   5.558409   2.404215   0.000000
    15  H    3.256129   5.526933   2.851221   1.759775   0.000000
    16  H    3.310925   5.657416   4.252347   2.886594   2.403293
    17  H    2.846864   5.403576   3.784336   2.327221   2.989519
    18  H    2.091457   3.451174   1.777863   3.028896   2.366669
    19  H    2.111527   3.773387   4.112872   3.992892   4.157892
    20  H    3.267695   3.049911   5.279981   5.917615   5.594529
    21  H    5.978726   5.616792   7.234809   7.815335   6.560166
    22  H    5.415894   6.013666   6.181821   6.304075   4.747776
    23  H    3.568236   5.163453   4.230286   3.867811   2.402821
    24  C    1.483257   3.249964   2.524968   3.228481   4.129967
    25  H    1.061756   1.601267   2.585544   4.013501   4.069137
    26  H    3.235331   0.991572   4.654223   6.245992   6.221712
    27  H    3.371603   0.959415   4.098325   6.093853   5.920366
    28  H    5.462127   4.245959   7.191784   8.135149   7.471863
    29  O    5.878040   4.320990   7.611612   8.702977   8.175651
    30  H    6.705050   5.248130   8.505241   9.482860   8.942296
    31  O    4.369004   2.634013   6.097015   7.371828   7.364833
    32  H    4.922882   3.190880   6.682064   7.900296   7.696196
    33  H    5.086416   3.248255   6.731394   8.068164   8.188631
    34  H    2.141134   3.255851   3.594701   4.199303   5.036618
    35  H    2.168152   4.336652   2.760517   2.634404   3.895819
    36  H    2.139731   3.213646   2.363609   3.666154   4.645144
                   16         17         18         19         20
    16  H    0.000000
    17  H    1.758526   0.000000
    18  H    3.660223   3.932906   0.000000
    19  H    2.771756   2.353510   3.805773   0.000000
    20  H    4.489496   4.675026   4.430015   2.415429   0.000000
    21  H    5.997704   7.197304   5.579433   5.740372   4.122785
    22  H    4.612201   6.116727   4.445844   5.480883   4.898335
    23  H    2.329753   3.774036   2.782956   3.775355   4.316441
    24  C    4.062622   2.920136   3.331448   2.522638   4.073293
    25  H    4.173823   3.854313   2.330519   2.586123   2.882558
    26  H    6.012260   5.754822   4.277768   3.814306   2.635806
    27  H    6.307072   6.182917   3.659972   4.646732   3.722751
    28  H    6.580308   7.108202   6.017745   4.942965   2.550871
    29  O    7.309076   7.661530   6.587791   5.399187   2.994071
    30  H    7.906537   8.294759   7.466414   6.015830   3.644750
    31  O    6.660417   6.404899   5.668413   4.161175   2.490155
    32  H    6.908318   6.880511   6.013296   4.576548   2.475726
    33  H    7.489481   7.092155   6.467525   4.887463   3.392573
    34  H    4.518815   3.341691   4.187934   2.337100   3.695088
    35  H    3.771078   2.307120   3.753969   2.812624   4.820543
    36  H    5.014945   3.898369   3.548819   3.582175   4.801916
                   21         22         23         24         25
    21  H    0.000000
    22  H    2.498321   0.000000
    23  H    4.296660   2.489326   0.000000
    24  C    7.337622   6.866289   4.894759   0.000000
    25  H    5.622297   5.434943   4.009901   2.018260   0.000000
    26  H    5.531595   6.289253   5.618196   3.703710   2.243931
    27  H    5.623084   6.088300   5.507014   4.049897   2.334057
    28  H    3.101871   5.074779   5.693391   6.410681   4.804316
    29  O    4.016666   6.020357   6.541695   6.669647   5.125261
    30  H    4.381084   6.546682   7.206389   7.455878   6.003465
    31  O    5.699281   6.920861   6.472151   4.671496   3.556537
    32  H    5.087690   6.607998   6.506669   5.428019   4.113073
    33  H    6.573409   7.873765   7.405621   5.174077   4.276138
    34  H    7.405533   7.259374   5.458238   1.112086   2.367404
    35  H    7.979442   7.246762   5.037288   1.110300   2.983526
    36  H    7.939689   7.497368   5.608902   1.112356   2.340285
                   26         27         28         29         30
    26  H    0.000000
    27  H    1.571531   0.000000
    28  H    3.642205   4.424111   0.000000
    29  O    3.564097   4.466091   0.980013   0.000000
    30  H    4.452195   5.416128   1.560323   0.959728   0.000000
    31  O    1.651252   3.132739   3.058603   2.672836   3.360810
    32  H    2.256462   3.532752   2.215198   1.702030   2.388539
    33  H    2.286380   3.674936   3.775792   3.195883   3.734901
    34  H    3.410464   4.162767   6.055450   6.204796   6.921156
    35  H    4.788533   5.117415   7.265754   7.586413   8.333588
    36  H    3.795816   3.861628   6.940499   7.112141   7.947270
                   31         32         33         34         35
    31  O    0.000000
    32  H    0.986455   0.000000
    33  H    0.959890   1.561473   0.000000
    34  H    4.029054   4.842579   4.429984   0.000000
    35  H    5.666263   6.399822   6.163607   1.804655   0.000000
    36  H    4.950167   5.775764   5.340665   1.788290   1.795989
                   36
    36  H    0.000000
 Stoichiometry    C10H21N2O3(1+)
 Framework group  C1[X(C10H21N2O3)]
 Deg. of freedom   102
 Full point group                 C1      NOp   1
 Largest Abelian subgroup         C1      NOp   1
 Largest concise Abelian subgroup C1      NOp   1
                         Standard orientation:                         
 ---------------------------------------------------------------------
 Center     Atomic      Atomic             Coordinates (Angstroms)
 Number     Number       Type             X           Y           Z
 ---------------------------------------------------------------------
      1          6           0        1.129008    0.568225   -0.578918
      2          6           0       -0.206842    0.951524   -0.441759
      3          6           0       -0.464794    2.191591    0.144875
      4          6           0        0.602061    2.974312    0.573428
      5          6           0        1.896196    2.488914    0.404146
      6          7           0        2.157333    1.307968   -0.163858
      7          6           0       -1.285825    0.001071   -0.913607
      8          6           0       -2.672773    0.605629   -1.171913
      9          6           0       -3.436587    0.517886    0.174450
     10          6           0       -2.550410   -0.331855    1.099723
     11          7           0       -1.581916   -1.004645    0.179597
     12          8           0        0.549930   -2.054817    1.370512
     13          1           0       -3.085134   -1.090305    1.677799
     14          1           0       -4.417174    0.051862    0.034214
     15          1           0       -3.611542    1.503579    0.617552
     16          1           0       -2.594382    1.626600   -1.556400
     17          1           0       -3.185469    0.015427   -1.940003
     18          1           0       -1.957424    0.279792    1.786895
     19          1           0       -0.910594   -0.564385   -1.773360
     20          1           0        1.384959   -0.387553   -1.042974
     21          1           0        2.757710    3.070422    0.733348
     22          1           0        0.437556    3.948156    1.030127
     23          1           0       -1.482926    2.561185    0.265402
     24          6           0       -2.181653   -2.240184   -0.380590
     25          1           0       -0.713457   -1.352086    0.681980
     26          1           0        1.329417   -2.273206    0.797867
     27          1           0        0.867087   -1.996207    2.274090
     28          1           0        3.710238    0.282007   -0.235688
     29          8           0        4.262541   -0.527515   -0.227870
     30          1           0        5.020857   -0.357209   -0.790925
     31          8           0        2.481632   -2.516243   -0.359702
     32          1           0        3.234199   -1.878639   -0.345699
     33          1           0        2.862248   -3.389222   -0.479816
     34          1           0       -1.475342   -2.726411   -1.088715
     35          1           0       -3.138386   -2.048703   -0.910461
     36          1           0       -2.383463   -2.972443    0.432062
 ---------------------------------------------------------------------
 Rotational constants (GHZ):           0.6864242           0.4159598           0.2944972
 Standard basis: Aug-CC-pVDZ (5D, 7F)
 There are   564 symmetry adapted cartesian basis functions of A   symmetry.
 There are   534 symmetry adapted basis functions of A   symmetry.
   534 basis functions,   876 primitive gaussians,   564 cartesian basis functions
    59 alpha electrons       59 beta electrons
       nuclear repulsion energy      1107.9544392523 Hartrees.
 NAtoms=   36 NActive=   36 NUniq=   36 SFac= 1.00D+00 NAtFMM=   60 NAOKFM=F Big=F
 Integral buffers will be    131072 words long.
 Raffenetti 2 integral format.
 Two-electron integral symmetry is turned on.
 Nuclear repulsion after empirical dispersion term =     1107.9248441581 Hartrees.
 One-electron integrals computed using PRISM.
 NBasis=   534 RedAO= T EigKep=  2.27D-06  NBF=   534
 NBsUse=   534 1.00D-06 EigRej= -1.00D+00 NBFU=   534
 ExpMin= 2.97D-02 ExpMax= 1.17D+04 ExpMxC= 4.01D+02 IAcc=3 IRadAn=         5 AccDes= 0.00D+00
 Harris functional with IExCor= 4639 and IRadAn=       5 diagonalized for initial guess.
 HarFok:  IExCor= 4639 AccDes= 0.00D+00 IRadAn=         5 IDoV= 1 UseB2=F ITyADJ=14
 ICtDFT=  3500011 ScaDFX=  1.000000  1.000000  1.000000  1.000000
 FoFCou: FMM=F IPFlag=           0 FMFlag=      100000 FMFlg1=           0
         NFxFlg=           0 DoJE=T BraDBF=F KetDBF=T FulRan=T
         wScrn=  0.000000 ICntrl=       500 IOpCl=  0 I1Cent=   200000004 NGrid=           0
         NMat0=    1 NMatS0=      1 NMatT0=    0 NMatD0=    1 NMtDS0=    0 NMtDT0=    0
 Petite list used in FoFCou.
 Requested convergence on RMS density matrix=1.00D-08 within 128 cycles.
 Requested convergence on MAX density matrix=1.00D-06.
 Requested convergence on             energy=1.00D-06.
 No special actions if energy rises.
 SCF Done:  E(RwB97XD) =  -728.595577996     A.U. after   14 cycles
            NFock= 14  Conv=0.89D-08     -V/T= 2.0064
 DoSCS=F DFT=T ScalE2(SS,OS)=  1.000000  1.000000
 Range of M.O.s used for correlation:     1   534
 NBasis=   534 NAE=    59 NBE=    59 NFC=     0 NFV=     0
 NROrb=    534 NOA=    59 NOB=    59 NVA=   475 NVB=   475

 **** Warning!!: The largest alpha MO coefficient is  0.10691145D+03

 Symmetrizing basis deriv contribution to polar:
 IMax=3 JMax=2 DiffMx= 0.00D+00
 G2DrvN: will do    37 centers at a time, making    1 passes.
 Calling FoFCou, ICntrl=  3107 FMM=F I1Cent=   0 AccDes= 0.00D+00.
 End of G2Drv F.D. properties file   721 does not exist.
 End of G2Drv F.D. properties file   722 does not exist.
 End of G2Drv F.D. properties file   788 does not exist.
          IDoAtm=111111111111111111111111111111111111
          Differentiating once with respect to nuclear coordinates.
 CalDSu exits because no D1Ps are significant.
          There are   111 degrees of freedom in the 1st order CPHF.  IDoFFX=6 NUNeed=     0.
    105 vectors produced by pass  0 Test12= 2.80D-14 1.00D-09 XBig12= 4.02D-01 1.61D-01.
 AX will form   105 AO Fock derivatives at one time.
    105 vectors produced by pass  1 Test12= 2.80D-14 1.00D-09 XBig12= 5.96D-02 7.43D-02.
    105 vectors produced by pass  2 Test12= 2.80D-14 1.00D-09 XBig12= 1.19D-03 5.29D-03.
    105 vectors produced by pass  3 Test12= 2.80D-14 1.00D-09 XBig12= 1.33D-05 5.47D-04.
    105 vectors produced by pass  4 Test12= 2.80D-14 1.00D-09 XBig12= 1.17D-07 4.03D-05.
    105 vectors produced by pass  5 Test12= 2.80D-14 1.00D-09 XBig12= 7.14D-10 2.45D-06.
    104 vectors produced by pass  6 Test12= 2.80D-14 1.00D-09 XBig12= 3.87D-12 1.48D-07.
     39 vectors produced by pass  7 Test12= 2.80D-14 1.00D-09 XBig12= 2.27D-14 1.05D-08.
      6 vectors produced by pass  8 Test12= 2.80D-14 1.00D-09 XBig12= 2.34D-15 2.92D-09.
      3 vectors produced by pass  9 Test12= 2.80D-14 1.00D-09 XBig12= 8.92D-16 1.71D-09.
      2 vectors produced by pass 10 Test12= 2.80D-14 1.00D-09 XBig12= 3.18D-16 1.74D-09.
 InvSVY:  IOpt=1 It=  1 EMax= 1.33D-15
 Solved reduced A of dimension   784 with   111 vectors.
 End of Minotr F.D. properties file   721 does not exist.
 End of Minotr F.D. properties file   722 does not exist.
 End of Minotr F.D. properties file   788 does not exist.

 **********************************************************************

            Population analysis using the SCF density.

 **********************************************************************

 Orbital symmetries:
       Occupied  (A) (A) (A) (A) (A) (A) (A) (A) (A) (A) (A) (A)
                 (A) (A) (A) (A) (A) (A) (A) (A) (A) (A) (A) (A)
                 (A) (A) (A) (A) (A) (A) (A) (A) (A) (A) (A) (A)
                 (A) (A) (A) (A) (A) (A) (A) (A) (A) (A) (A) (A)
                 (A) (A) (A) (A) (A) (A) (A) (A) (A) (A) (A)
       Virtual   (A) (A) (A) (A) (A) (A) (A) (A) (A) (A) (A) (A)
                 (A) (A) (A) (A) (A) (A) (A) (A) (A) (A) (A) (A)
                 (A) (A) (A) (A) (A) (A) (A) (A) (A) (A) (A) (A)
                 (A) (A) (A) (A) (A) (A) (A) (A) (A) (A) (A) (A)
                 (A) (A) (A) (A) (A) (A) (A) (A) (A) (A) (A) (A)
                 (A) (A) (A) (A) (A) (A) (A) (A) (A) (A) (A) (A)
                 (A) (A) (A) (A) (A) (A) (A) (A) (A) (A) (A) (A)
                 (A) (A) (A) (A) (A) (A) (A) (A) (A) (A) (A) (A)
                 (A) (A) (A) (A) (A) (A) (A) (A) (A) (A) (A) (A)
                 (A) (A) (A) (A) (A) (A) (A) (A) (A) (A) (A) (A)
                 (A) (A) (A) (A) (A) (A) (A) (A) (A) (A) (A) (A)
                 (A) (A) (A) (A) (A) (A) (A) (A) (A) (A) (A) (A)
                 (A) (A) (A) (A) (A) (A) (A) (A) (A) (A) (A) (A)
                 (A) (A) (A) (A) (A) (A) (A) (A) (A) (A) (A) (A)
                 (A) (A) (A) (A) (A) (A) (A) (A) (A) (A) (A) (A)
                 (A) (A) (A) (A) (A) (A) (A) (A) (A) (A) (A) (A)
                 (A) (A) (A) (A) (A) (A) (A) (A) (A) (A) (A) (A)
                 (A) (A) (A) (A) (A) (A) (A) (A) (A) (A) (A) (A)
                 (A) (A) (A) (A) (A) (A) (A) (A) (A) (A) (A) (A)
                 (A) (A) (A) (A) (A) (A) (A) (A) (A) (A) (A) (A)
                 (A) (A) (A) (A) (A) (A) (A) (A) (A) (A) (A) (A)
                 (A) (A) (A) (A) (A) (A) (A) (A) (A) (A) (A) (A)
                 (A) (A) (A) (A) (A) (A) (A) (A) (A) (A) (A) (A)
                 (A) (A) (A) (A) (A) (A) (A) (A) (A) (A) (A) (A)
                 (A) (A) (A) (A) (A) (A) (A) (A) (A) (A) (A) (A)
                 (A) (A) (A) (A) (A) (A) (A) (A) (A) (A) (A) (A)
                 (A) (A) (A) (A) (A) (A) (A) (A) (A) (A) (A) (A)
                 (A) (A) (A) (A) (A) (A) (A) (A) (A) (A) (A) (A)
                 (A) (A) (A) (A) (A) (A) (A) (A) (A) (A) (A) (A)
                 (A) (A) (A) (A) (A) (A) (A) (A) (A) (A) (A) (A)
                 (A) (A) (A) (A) (A) (A) (A) (A) (A) (A) (A) (A)
                 (A) (A) (A) (A) (A) (A) (A) (A) (A) (A) (A) (A)
                 (A) (A) (A) (A) (A) (A) (A) (A) (A) (A) (A) (A)
                 (A) (A) (A) (A) (A) (A) (A) (A) (A) (A) (A) (A)
                 (A) (A) (A) (A) (A) (A) (A) (A) (A) (A) (A) (A)
                 (A) (A) (A) (A) (A) (A) (A) (A) (A) (A) (A) (A)
                 (A) (A) (A) (A) (A) (A) (A) (A) (A) (A) (A) (A)
                 (A) (A) (A) (A) (A) (A) (A) (A) (A) (A) (A) (A)
                 (A) (A) (A) (A) (A) (A) (A) (A) (A) (A) (A) (A)
                 (A) (A) (A) (A) (A) (A) (A)
 The electronic state is 1-A.
 Alpha  occ. eigenvalues --  -19.39755 -19.38295 -19.37079 -14.68847 -14.58607
 Alpha  occ. eigenvalues --  -10.50034 -10.48708 -10.48524 -10.46738 -10.46448
 Alpha  occ. eigenvalues --  -10.45434 -10.45349 -10.44556 -10.44536 -10.43728
 Alpha  occ. eigenvalues --   -1.25707  -1.24148  -1.22529  -1.20968  -1.18379
 Alpha  occ. eigenvalues --   -1.06796  -1.03695  -1.01695  -0.97979  -0.95281
 Alpha  occ. eigenvalues --   -0.87606  -0.86408  -0.84769  -0.83115  -0.79602
 Alpha  occ. eigenvalues --   -0.75806  -0.75531  -0.74682  -0.73763  -0.72034
 Alpha  occ. eigenvalues --   -0.71465  -0.70755  -0.68807  -0.66617  -0.65922
 Alpha  occ. eigenvalues --   -0.64600  -0.64008  -0.62875  -0.62465  -0.61715
 Alpha  occ. eigenvalues --   -0.61103  -0.60695  -0.58842  -0.58725  -0.58525
 Alpha  occ. eigenvalues --   -0.57370  -0.56602  -0.55630  -0.53513  -0.52063
 Alpha  occ. eigenvalues --   -0.50506  -0.50153  -0.47949  -0.46989
 Alpha virt. eigenvalues --   -0.10039  -0.08754  -0.06931  -0.05618  -0.05256
 Alpha virt. eigenvalues --   -0.04885  -0.03727  -0.03382  -0.03235  -0.03089
 Alpha virt. eigenvalues --   -0.02682  -0.01686  -0.01195  -0.01073  -0.00778
 Alpha virt. eigenvalues --   -0.00418   0.00246   0.00486   0.01165   0.01361
 Alpha virt. eigenvalues --    0.01857   0.02111   0.02306   0.02902   0.03152
 Alpha virt. eigenvalues --    0.03308   0.03404   0.03844   0.04055   0.04479
 Alpha virt. eigenvalues --    0.04604   0.04736   0.04864   0.05461   0.05673
 Alpha virt. eigenvalues --    0.06100   0.06488   0.06511   0.06762   0.06824
 Alpha virt. eigenvalues --    0.07240   0.07794   0.08332   0.08437   0.08698
 Alpha virt. eigenvalues --    0.09042   0.09261   0.09531   0.09896   0.10149
 Alpha virt. eigenvalues --    0.10424   0.10749   0.11386   0.11593   0.11887
 Alpha virt. eigenvalues --    0.11941   0.12362   0.12891   0.13021   0.13625
 Alpha virt. eigenvalues --    0.14107   0.14206   0.14463   0.15227   0.15322
 Alpha virt. eigenvalues --    0.15720   0.15864   0.16496   0.16557   0.16828
 Alpha virt. eigenvalues --    0.17323   0.17574   0.17945   0.18250   0.18476
 Alpha virt. eigenvalues --    0.18727   0.19135   0.19148   0.19756   0.19817
 Alpha virt. eigenvalues --    0.19980   0.20547   0.20744   0.21298   0.21988
 Alpha virt. eigenvalues --    0.22008   0.22528   0.22728   0.23035   0.23325
 Alpha virt. eigenvalues --    0.23650   0.23840   0.24339   0.24847   0.24987
 Alpha virt. eigenvalues --    0.25546   0.25792   0.26361   0.26421   0.26788
 Alpha virt. eigenvalues --    0.27131   0.27887   0.28124   0.28344   0.29352
 Alpha virt. eigenvalues --    0.29446   0.29763   0.30026   0.30394   0.30767
 Alpha virt. eigenvalues --    0.31266   0.31607   0.31738   0.32665   0.33132
 Alpha virt. eigenvalues --    0.33374   0.33504   0.33928   0.34545   0.35194
 Alpha virt. eigenvalues --    0.35530   0.36466   0.36745   0.36841   0.37153
 Alpha virt. eigenvalues --    0.37543   0.38278   0.38617   0.38802   0.39576
 Alpha virt. eigenvalues --    0.40596   0.40649   0.40779   0.41679   0.42245
 Alpha virt. eigenvalues --    0.42497   0.42658   0.43109   0.43464   0.44008
 Alpha virt. eigenvalues --    0.44311   0.45095   0.45381   0.45901   0.46504
 Alpha virt. eigenvalues --    0.46945   0.47482   0.47734   0.47888   0.48099
 Alpha virt. eigenvalues --    0.48916   0.49211   0.49486   0.49782   0.50273
 Alpha virt. eigenvalues --    0.50745   0.51079   0.51658   0.52030   0.52439
 Alpha virt. eigenvalues --    0.52772   0.53232   0.53458   0.53798   0.54765
 Alpha virt. eigenvalues --    0.54866   0.55426   0.55487   0.55917   0.56280
 Alpha virt. eigenvalues --    0.56785   0.56882   0.57622   0.57828   0.58323
 Alpha virt. eigenvalues --    0.58542   0.59144   0.59757   0.60351   0.60622
 Alpha virt. eigenvalues --    0.61330   0.61646   0.62409   0.62575   0.62854
 Alpha virt. eigenvalues --    0.63531   0.63836   0.64453   0.64635   0.65140
 Alpha virt. eigenvalues --    0.65767   0.66254   0.66864   0.67257   0.67814
 Alpha virt. eigenvalues --    0.68071   0.68271   0.69018   0.69657   0.69958
 Alpha virt. eigenvalues --    0.70301   0.70686   0.71212   0.71401   0.71923
 Alpha virt. eigenvalues --    0.72403   0.72892   0.73412   0.73662   0.74206
 Alpha virt. eigenvalues --    0.74391   0.75711   0.76216   0.77042   0.77130
 Alpha virt. eigenvalues --    0.77886   0.78181   0.78742   0.79570   0.79855
 Alpha virt. eigenvalues --    0.80916   0.81061   0.82473   0.82983   0.83533
 Alpha virt. eigenvalues --    0.83815   0.84280   0.85377   0.85876   0.86779
 Alpha virt. eigenvalues --    0.87715   0.89032   0.89196   0.89699   0.90472
 Alpha virt. eigenvalues --    0.91687   0.92613   0.93649   0.93758   0.94407
 Alpha virt. eigenvalues --    0.95354   0.95822   0.96677   0.98157   0.98584
 Alpha virt. eigenvalues --    0.98846   0.99942   1.00746   1.00807   1.01398
 Alpha virt. eigenvalues --    1.02315   1.02950   1.03758   1.04999   1.05324
 Alpha virt. eigenvalues --    1.06719   1.07909   1.08363   1.08941   1.09676
 Alpha virt. eigenvalues --    1.10008   1.10881   1.12008   1.12710   1.13707
 Alpha virt. eigenvalues --    1.14309   1.14712   1.15348   1.17391   1.17983
 Alpha virt. eigenvalues --    1.19269   1.19951   1.20415   1.21155   1.22103
 Alpha virt. eigenvalues --    1.22922   1.23485   1.25415   1.27795   1.28367
 Alpha virt. eigenvalues --    1.28831   1.29682   1.30703   1.31253   1.32867
 Alpha virt. eigenvalues --    1.34335   1.34826   1.36037   1.36881   1.37681
 Alpha virt. eigenvalues --    1.39585   1.39855   1.40744   1.41819   1.42039
 Alpha virt. eigenvalues --    1.42935   1.43534   1.44573   1.45277   1.46339
 Alpha virt. eigenvalues --    1.47269   1.48547   1.49203   1.49723   1.50978
 Alpha virt. eigenvalues --    1.51492   1.52709   1.53364   1.54102   1.54291
 Alpha virt. eigenvalues --    1.54936   1.57009   1.57396   1.58149   1.58805
 Alpha virt. eigenvalues --    1.59715   1.61278   1.61521   1.62703   1.63259
 Alpha virt. eigenvalues --    1.63844   1.64737   1.65636   1.66602   1.67720
 Alpha virt. eigenvalues --    1.68633   1.69322   1.71221   1.71567   1.72681
 Alpha virt. eigenvalues --    1.73821   1.74651   1.75379   1.76042   1.76540
 Alpha virt. eigenvalues --    1.78089   1.79277   1.79426   1.80177   1.81396
 Alpha virt. eigenvalues --    1.82143   1.82827   1.83037   1.83426   1.85211
 Alpha virt. eigenvalues --    1.85756   1.86450   1.87098   1.87526   1.87863
 Alpha virt. eigenvalues --    1.89081   1.90511   1.91197   1.91748   1.92572
 Alpha virt. eigenvalues --    1.92802   1.93184   1.95060   1.95564   1.97083
 Alpha virt. eigenvalues --    1.97753   1.98394   1.98778   2.00231   2.01631
 Alpha virt. eigenvalues --    2.02439   2.03456   2.03698   2.04893   2.06224
 Alpha virt. eigenvalues --    2.07667   2.08366   2.10168   2.10418   2.11132
 Alpha virt. eigenvalues --    2.12534   2.13251   2.13989   2.15152   2.15569
 Alpha virt. eigenvalues --    2.16586   2.18044   2.18742   2.18901   2.20607
 Alpha virt. eigenvalues --    2.20867   2.21317   2.22831   2.23781   2.24740
 Alpha virt. eigenvalues --    2.25540   2.27456   2.28717   2.29267   2.30096
 Alpha virt. eigenvalues --    2.30793   2.31982   2.32508   2.33102   2.36244
 Alpha virt. eigenvalues --    2.37712   2.38141   2.40517   2.40795   2.42276
 Alpha virt. eigenvalues --    2.44199   2.45270   2.45533   2.46884   2.48525
 Alpha virt. eigenvalues --    2.51530   2.52603   2.53476   2.54144   2.55453
 Alpha virt. eigenvalues --    2.56235   2.56985   2.58308   2.60669   2.62354
 Alpha virt. eigenvalues --    2.62688   2.65293   2.65893   2.67108   2.68109
 Alpha virt. eigenvalues --    2.68485   2.69981   2.70402   2.71078   2.72953
 Alpha virt. eigenvalues --    2.74341   2.75454   2.76942   2.78217   2.79395
 Alpha virt. eigenvalues --    2.79888   2.82693   2.83558   2.83926   2.85523
 Alpha virt. eigenvalues --    2.86864   2.89589   2.90938   2.92371   2.94046
 Alpha virt. eigenvalues --    2.97678   3.00004   3.03218   3.06494   3.07342
 Alpha virt. eigenvalues --    3.12066   3.17707   3.27323   3.32145   3.36543
 Alpha virt. eigenvalues --    3.37147   3.39595   3.40050   3.41121   3.43645
 Alpha virt. eigenvalues --    3.46702   3.48274   3.52479   3.54068   3.58743
 Alpha virt. eigenvalues --    3.67051   3.81925   3.83285   3.84866   3.88519
 Alpha virt. eigenvalues --    4.00114   4.05995   4.06989   4.26830   4.80558
          Condensed to atoms (all electrons):
               1          2          3          4          5          6
     1  C   17.847602  -6.534308   1.920983  -2.074784  -0.681560  -0.668337
     2  C   -6.534308  22.367287 -11.190575   2.439221  -1.889893   0.759375
     3  C    1.920983 -11.190575  24.357336  -5.639164   1.574991  -0.868482
     4  C   -2.074784   2.439221  -5.639164  12.995667  -2.406609   0.318393
     5  C   -0.681560  -1.889893   1.574991  -2.406609   9.430220   0.450011
     6  N   -0.668337   0.759375  -0.868482   0.318393   0.450011   7.557355
     7  C   -1.891229  -3.494424  -1.943981   0.265914  -0.402913  -0.093349
     8  C   -1.142168   0.533491  -0.723283   0.191203  -0.177438   0.102852
     9  C    0.457742  -0.155708   0.028400  -0.170233   0.073651  -0.040221
    10  C   -0.327476   0.484994  -0.253909   0.249386  -0.120738   0.034263
    11  N   -0.325005   0.925768  -0.805440   0.147430  -0.102010  -0.002173
    12  O   -0.212951   0.124667  -0.033092  -0.006144   0.035878   0.041031
    13  H   -0.011808   0.057342  -0.009321   0.013626  -0.005043   0.003802
    14  H    0.023255  -0.072795   0.026403  -0.008636   0.006787  -0.001908
    15  H   -0.039627   0.027030   0.001000   0.004800  -0.015572   0.001760
    16  H    0.094439  -0.394765   0.106135   0.045997   0.016671  -0.003777
    17  H   -0.030802   0.465292  -0.169189   0.000159  -0.015802   0.003790
    18  H    0.155736  -0.210624   0.079691  -0.081879   0.044517  -0.013656
    19  H    0.244845   0.038600   0.181482  -0.104864   0.068665  -0.001654
    20  H   -1.600533   0.024662  -0.036211  -0.001163   0.038316   0.142215
    21  H    0.151497  -0.064488   0.234079   0.039096  -0.396601  -0.224905
    22  H    0.166032  -0.294366   0.871396  -1.317015   0.399754  -0.057422
    23  H   -0.136649   1.058288  -3.072174   0.664698  -0.213991  -0.016042
    24  C   -0.109994  -0.158682  -0.087078   0.019480  -0.017718  -0.003059
    25  H   -0.094342   0.133763  -0.056051  -0.019829   0.053244   0.033410
    26  H    0.030962  -0.008619   0.006823   0.004805  -0.005377  -0.005075
    27  H    0.001599  -0.005692  -0.010195   0.004210  -0.003878   0.002439
    28  H   -0.088686  -0.037741   0.032480  -0.077517   0.086470   0.141691
    29  O   -0.033457  -0.055874   0.022704  -0.020146   0.043629  -0.023409
    30  H   -0.000580   0.013182  -0.005741   0.009910  -0.011985  -0.007441
    31  O    0.034750  -0.015613   0.004752  -0.004601   0.006480  -0.011063
    32  H    0.009241  -0.007299   0.000732   0.000528  -0.002329  -0.005594
    33  H    0.011725   0.002283  -0.002036   0.000120  -0.000762  -0.001045
    34  H   -0.054433   0.108555   0.018217  -0.001041   0.001188   0.006201
    35  H    0.001503   0.020191  -0.018438   0.005511   0.000969  -0.001187
    36  H    0.018225  -0.054960   0.018608  -0.003055  -0.001067  -0.002003
               7          8          9         10         11         12
     1  C   -1.891229  -1.142168   0.457742  -0.327476  -0.325005  -0.212951
     2  C   -3.494424   0.533491  -0.155708   0.484994   0.925768   0.124667
     3  C   -1.943981  -0.723283   0.028400  -0.253909  -0.805440  -0.033092
     4  C    0.265914   0.191203  -0.170233   0.249386   0.147430  -0.006144
     5  C   -0.402913  -0.177438   0.073651  -0.120738  -0.102010   0.035878
     6  N   -0.093349   0.102852  -0.040221   0.034263  -0.002173   0.041031
     7  C   18.570927  -1.525824   0.383341  -1.145171  -2.300830  -0.084972
     8  C   -1.525824   7.961009  -0.410977   0.469494   0.497147   0.015142
     9  C    0.383341  -0.410977   6.080566  -0.389628  -0.483049  -0.015094
    10  C   -1.145171   0.469494  -0.389628   5.940919   0.431276  -0.050920
    11  N   -2.300830   0.497147  -0.483049   0.431276  10.689409  -0.105957
    12  O   -0.084972   0.015142  -0.015094  -0.050920  -0.105957   8.226783
    13  H    0.053766   0.006267  -0.001727   0.156583  -0.907038   0.006598
    14  H   -0.089718   0.124765  -0.187689   0.002748   0.121267  -0.001024
    15  H    0.104016   0.224041  -0.523077   0.228221   0.019732  -0.000485
    16  H   -0.034709  -0.556327   0.175681   0.043943  -0.115506  -0.000401
    17  H    0.303507  -0.383451   0.154359  -0.080879   0.065586   0.000446
    18  H    0.331678  -0.193582   0.373402  -0.849801   0.025793  -0.001385
    19  H   -1.995332   0.056267   0.035985  -0.016835   0.083907   0.010274
    20  H    0.088528   0.124365  -0.008913  -0.011642  -0.148675   0.047636
    21  H   -0.019573   0.001561  -0.000373   0.002404   0.004686  -0.001173
    22  H   -0.006925  -0.011064   0.018195  -0.017219  -0.004682   0.000567
    23  H   -0.045892   0.019142  -0.113364   0.151833   0.063874  -0.001389
    24  C    0.187654   0.035135  -0.043570  -0.125010   0.120059   0.005273
    25  H   -0.260104  -0.108873  -0.059144  -0.170979   0.221383   0.001295
    26  H    0.005532  -0.005063   0.002114   0.013232   0.012156   0.249570
    27  H    0.007392  -0.001019   0.000834  -0.004897   0.003247   0.381875
    28  H    0.007014  -0.008032   0.004256  -0.006728  -0.007101   0.001475
    29  O   -0.000685  -0.000879   0.000553  -0.001167  -0.001150   0.004706
    30  H    0.002145   0.000662  -0.000274   0.000493   0.000521  -0.000038
    31  O   -0.053006  -0.005526   0.000038  -0.002174   0.019440  -0.078392
    32  H   -0.010327   0.000306  -0.000604   0.000184   0.002853  -0.002172
    33  H    0.006447   0.000141  -0.000015   0.000032   0.001508   0.005528
    34  H   -0.128531   0.119623  -0.060167   0.022658  -0.341285   0.021826
    35  H   -0.037913  -0.030584   0.034661  -0.068975   0.493170  -0.000845
    36  H    0.184450  -0.116858   0.068063   0.010976  -0.677361  -0.009687
              13         14         15         16         17         18
     1  C   -0.011808   0.023255  -0.039627   0.094439  -0.030802   0.155736
     2  C    0.057342  -0.072795   0.027030  -0.394765   0.465292  -0.210624
     3  C   -0.009321   0.026403   0.001000   0.106135  -0.169189   0.079691
     4  C    0.013626  -0.008636   0.004800   0.045997   0.000159  -0.081879
     5  C   -0.005043   0.006787  -0.015572   0.016671  -0.015802   0.044517
     6  N    0.003802  -0.001908   0.001760  -0.003777   0.003790  -0.013656
     7  C    0.053766  -0.089718   0.104016  -0.034709   0.303507   0.331678
     8  C    0.006267   0.124765   0.224041  -0.556327  -0.383451  -0.193582
     9  C   -0.001727  -0.187689  -0.523077   0.175681   0.154359   0.373402
    10  C    0.156583   0.002748   0.228221   0.043943  -0.080879  -0.849801
    11  N   -0.907038   0.121267   0.019732  -0.115506   0.065586   0.025793
    12  O    0.006598  -0.001024  -0.000485  -0.000401   0.000446  -0.001385
    13  H    2.805172  -0.340017   0.140877  -0.015367   0.042272  -0.844320
    14  H   -0.340017   2.538675  -0.835847   0.193127  -0.451036   0.229717
    15  H    0.140877  -0.835847   2.511550  -0.351349   0.205309  -0.375725
    16  H   -0.015367   0.193127  -0.351349   2.887093  -0.836094   0.082284
    17  H    0.042272  -0.451036   0.205309  -0.836094   2.466767  -0.089400
    18  H   -0.844320   0.229717  -0.375725   0.082284  -0.089400   3.008102
    19  H   -0.017693   0.033116  -0.015564   0.136840  -0.314512   0.058567
    20  H   -0.000930  -0.001620  -0.003916   0.027040  -0.002558   0.006904
    21  H    0.000440   0.000017  -0.000520   0.001047   0.000228   0.000021
    22  H   -0.000965  -0.000400   0.005327  -0.007432   0.001119  -0.004673
    23  H    0.016989   0.021269  -0.019224  -0.014356  -0.008149  -0.058540
    24  C    0.199878  -0.006059   0.011495  -0.006727   0.017859  -0.049547
    25  H   -0.088083   0.033538  -0.015766   0.000724   0.002496  -0.052981
    26  H    0.005573   0.000233  -0.000430   0.000802  -0.001040   0.000458
    27  H   -0.000999  -0.000651   0.000752  -0.000444   0.000345   0.001236
    28  H   -0.000876   0.000300   0.000003  -0.000184  -0.000735   0.002070
    29  O   -0.000164   0.000030   0.000037  -0.000068  -0.000110   0.000030
    30  H    0.000065  -0.000021  -0.000008   0.000027   0.000065  -0.000111
    31  O   -0.000584   0.000028  -0.000013  -0.000095  -0.000661   0.000559
    32  H    0.000184   0.000074  -0.000115   0.000072  -0.000058   0.000177
    33  H   -0.000242  -0.000029   0.000051  -0.000023   0.000098  -0.000133
    34  H    0.055902  -0.007827  -0.004932   0.009055   0.006398  -0.018378
    35  H    0.014248  -0.046829   0.011265   0.002641   0.000705  -0.005554
    36  H    0.042076   0.011942   0.001667  -0.004133  -0.013004   0.031780
              19         20         21         22         23         24
     1  C    0.244845  -1.600533   0.151497   0.166032  -0.136649  -0.109994
     2  C    0.038600   0.024662  -0.064488  -0.294366   1.058288  -0.158682
     3  C    0.181482  -0.036211   0.234079   0.871396  -3.072174  -0.087078
     4  C   -0.104864  -0.001163   0.039096  -1.317015   0.664698   0.019480
     5  C    0.068665   0.038316  -0.396601   0.399754  -0.213991  -0.017718
     6  N   -0.001654   0.142215  -0.224905  -0.057422  -0.016042  -0.003059
     7  C   -1.995332   0.088528  -0.019573  -0.006925  -0.045892   0.187654
     8  C    0.056267   0.124365   0.001561  -0.011064   0.019142   0.035135
     9  C    0.035985  -0.008913  -0.000373   0.018195  -0.113364  -0.043570
    10  C   -0.016835  -0.011642   0.002404  -0.017219   0.151833  -0.125010
    11  N    0.083907  -0.148675   0.004686  -0.004682   0.063874   0.120059
    12  O    0.010274   0.047636  -0.001173   0.000567  -0.001389   0.005273
    13  H   -0.017693  -0.000930   0.000440  -0.000965   0.016989   0.199878
    14  H    0.033116  -0.001620   0.000017  -0.000400   0.021269  -0.006059
    15  H   -0.015564  -0.003916  -0.000520   0.005327  -0.019224   0.011495
    16  H    0.136840   0.027040   0.001047  -0.007432  -0.014356  -0.006727
    17  H   -0.314512  -0.002558   0.000228   0.001119  -0.008149   0.017859
    18  H    0.058567   0.006904   0.000021  -0.004673  -0.058540  -0.049547
    19  H    3.244885  -0.031621  -0.001849  -0.003169   0.013205  -0.017451
    20  H   -0.031621   3.429763   0.024509  -0.002423  -0.030218   0.015566
    21  H   -0.001849   0.024509   2.005854  -0.131176  -0.000494   0.000842
    22  H   -0.003169  -0.002423  -0.131176   2.195216  -0.179751  -0.000599
    23  H    0.013205  -0.030218  -0.000494  -0.179751   3.946108   0.011162
    24  C   -0.017451   0.015566   0.000842  -0.000599   0.011162   4.543673
    25  H    0.022174   0.022330  -0.006832   0.005768   0.005477  -0.187833
    26  H    0.002285  -0.014682   0.000937  -0.000272   0.000619  -0.005211
    27  H   -0.002035  -0.008836   0.000113  -0.000153   0.000113   0.006976
    28  H    0.004241  -0.033025  -0.050163   0.009072  -0.002458  -0.003614
    29  O    0.003399   0.001792   0.000383   0.000015   0.000099  -0.000278
    30  H   -0.000112   0.005438   0.003316  -0.000500   0.000216   0.000436
    31  O    0.005269   0.011460   0.000585  -0.000102   0.000273   0.001376
    32  H    0.000123  -0.007013   0.001145  -0.000160   0.000315  -0.001278
    33  H    0.000736  -0.005504  -0.000292   0.000055  -0.000203   0.001278
    34  H   -0.043566   0.024095   0.000172  -0.000363   0.005188   0.273137
    35  H   -0.027863  -0.002574   0.000063   0.000204  -0.002619   0.174429
    36  H    0.067589   0.001541   0.000046  -0.000093   0.000318   0.378409
              25         26         27         28         29         30
     1  C   -0.094342   0.030962   0.001599  -0.088686  -0.033457  -0.000580
     2  C    0.133763  -0.008619  -0.005692  -0.037741  -0.055874   0.013182
     3  C   -0.056051   0.006823  -0.010195   0.032480   0.022704  -0.005741
     4  C   -0.019829   0.004805   0.004210  -0.077517  -0.020146   0.009910
     5  C    0.053244  -0.005377  -0.003878   0.086470   0.043629  -0.011985
     6  N    0.033410  -0.005075   0.002439   0.141691  -0.023409  -0.007441
     7  C   -0.260104   0.005532   0.007392   0.007014  -0.000685   0.002145
     8  C   -0.108873  -0.005063  -0.001019  -0.008032  -0.000879   0.000662
     9  C   -0.059144   0.002114   0.000834   0.004256   0.000553  -0.000274
    10  C   -0.170979   0.013232  -0.004897  -0.006728  -0.001167   0.000493
    11  N    0.221383   0.012156   0.003247  -0.007101  -0.001150   0.000521
    12  O    0.001295   0.249570   0.381875   0.001475   0.004706  -0.000038
    13  H   -0.088083   0.005573  -0.000999  -0.000876  -0.000164   0.000065
    14  H    0.033538   0.000233  -0.000651   0.000300   0.000030  -0.000021
    15  H   -0.015766  -0.000430   0.000752   0.000003   0.000037  -0.000008
    16  H    0.000724   0.000802  -0.000444  -0.000184  -0.000068   0.000027
    17  H    0.002496  -0.001040   0.000345  -0.000735  -0.000110   0.000065
    18  H   -0.052981   0.000458   0.001236   0.002070   0.000030  -0.000111
    19  H    0.022174   0.002285  -0.002035   0.004241   0.003399  -0.000112
    20  H    0.022330  -0.014682  -0.008836  -0.033025   0.001792   0.005438
    21  H   -0.006832   0.000937   0.000113  -0.050163   0.000383   0.003316
    22  H    0.005768  -0.000272  -0.000153   0.009072   0.000015  -0.000500
    23  H    0.005477   0.000619   0.000113  -0.002458   0.000099   0.000216
    24  C   -0.187833  -0.005211   0.006976  -0.003614  -0.000278   0.000436
    25  H    1.565967  -0.016349  -0.009084   0.004785  -0.001293  -0.000440
    26  H   -0.016349   0.535475  -0.105562  -0.003348  -0.001538   0.000522
    27  H   -0.009084  -0.105562   0.546307  -0.000010   0.000722  -0.000071
    28  H    0.004785  -0.003348  -0.000010   0.629135   0.280145  -0.115951
    29  O   -0.001293  -0.001538   0.000722   0.280145   7.813969   0.373210
    30  H   -0.000440   0.000522  -0.000071  -0.115951   0.373210   0.580191
    31  O    0.003959   0.001971   0.001984   0.002615  -0.053149   0.000078
    32  H    0.005769  -0.009945   0.002936  -0.003706   0.015374  -0.001200
    33  H   -0.003664  -0.001001  -0.000613  -0.001144  -0.004455   0.001050
    34  H    0.048027  -0.000721  -0.000106  -0.000512  -0.000512   0.000029
    35  H   -0.057046  -0.002709   0.000672  -0.000155  -0.000041   0.000024
    36  H    0.017810   0.006714   0.000881   0.000124   0.000218  -0.000005
              31         32         33         34         35         36
     1  C    0.034750   0.009241   0.011725  -0.054433   0.001503   0.018225
     2  C   -0.015613  -0.007299   0.002283   0.108555   0.020191  -0.054960
     3  C    0.004752   0.000732  -0.002036   0.018217  -0.018438   0.018608
     4  C   -0.004601   0.000528   0.000120  -0.001041   0.005511  -0.003055
     5  C    0.006480  -0.002329  -0.000762   0.001188   0.000969  -0.001067
     6  N   -0.011063  -0.005594  -0.001045   0.006201  -0.001187  -0.002003
     7  C   -0.053006  -0.010327   0.006447  -0.128531  -0.037913   0.184450
     8  C   -0.005526   0.000306   0.000141   0.119623  -0.030584  -0.116858
     9  C    0.000038  -0.000604  -0.000015  -0.060167   0.034661   0.068063
    10  C   -0.002174   0.000184   0.000032   0.022658  -0.068975   0.010976
    11  N    0.019440   0.002853   0.001508  -0.341285   0.493170  -0.677361
    12  O   -0.078392  -0.002172   0.005528   0.021826  -0.000845  -0.009687
    13  H   -0.000584   0.000184  -0.000242   0.055902   0.014248   0.042076
    14  H    0.000028   0.000074  -0.000029  -0.007827  -0.046829   0.011942
    15  H   -0.000013  -0.000115   0.000051  -0.004932   0.011265   0.001667
    16  H   -0.000095   0.000072  -0.000023   0.009055   0.002641  -0.004133
    17  H   -0.000661  -0.000058   0.000098   0.006398   0.000705  -0.013004
    18  H    0.000559   0.000177  -0.000133  -0.018378  -0.005554   0.031780
    19  H    0.005269   0.000123   0.000736  -0.043566  -0.027863   0.067589
    20  H    0.011460  -0.007013  -0.005504   0.024095  -0.002574   0.001541
    21  H    0.000585   0.001145  -0.000292   0.000172   0.000063   0.000046
    22  H   -0.000102  -0.000160   0.000055  -0.000363   0.000204  -0.000093
    23  H    0.000273   0.000315  -0.000203   0.005188  -0.002619   0.000318
    24  C    0.001376  -0.001278   0.001278   0.273137   0.174429   0.378409
    25  H    0.003959   0.005769  -0.003664   0.048027  -0.057046   0.017810
    26  H    0.001971  -0.009945  -0.001001  -0.000721  -0.002709   0.006714
    27  H    0.001984   0.002936  -0.000613  -0.000106   0.000672   0.000881
    28  H    0.002615  -0.003706  -0.001144  -0.000512  -0.000155   0.000124
    29  O   -0.053149   0.015374  -0.004455  -0.000512  -0.000041   0.000218
    30  H    0.000078  -0.001200   0.001050   0.000029   0.000024  -0.000005
    31  O    7.882739   0.339503   0.335508  -0.002410  -0.000218   0.002517
    32  H    0.339503   0.539710  -0.125391  -0.000351  -0.000213   0.000085
    33  H    0.335508  -0.125391   0.619437   0.000047   0.000208  -0.000244
    34  H   -0.002410  -0.000351   0.000047   1.845051  -0.359525  -0.401670
    35  H   -0.000218  -0.000213   0.000208  -0.359525   1.199610  -0.279910
    36  H    0.002517   0.000085  -0.000244  -0.401670  -0.279910   1.893752
 Mulliken charges:
               1
     1  C    0.888593
     2  C    1.062437
     3  C    1.438148
     4  C    0.516527
     5  C    0.139848
     6  N   -0.546787
     7  C    1.063097
     8  C    0.918331
     9  C    0.771985
    10  C    1.400504
    11  N   -0.622949
    12  O   -0.574447
    13  H   -0.376484
    14  H   -0.315185
    15  H   -0.296764
    16  H   -0.481861
    17  H   -0.339320
    18  H   -0.582432
    19  H   -0.718335
    20  H   -1.084102
    21  H   -0.574602
    22  H   -0.631797
    23  H   -1.063673
    24  C    0.819594
    25  H    0.026778
    26  H    0.306159
    27  H    0.189613
    28  H    0.235810
    29  O   -0.362642
    30  H    0.152897
    31  O   -0.428274
    32  H    0.258443
    33  H    0.160547
    34  H   -0.139041
    35  H   -0.016877
    36  H   -0.193742
 Sum of Mulliken charges =   1.00000
 Mulliken charges with hydrogens summed into heavy atoms:
               1
     1  C   -0.195509
     2  C    1.062437
     3  C    0.374475
     4  C   -0.115270
     5  C   -0.434754
     6  N   -0.546787
     7  C    0.344762
     8  C    0.097151
     9  C    0.160036
    10  C    0.441588
    11  N   -0.596171
    12  O   -0.078675
    24  C    0.469934
    29  O    0.026066
    31  O   -0.009283
 APT charges:
               1
     1  C    0.209093
     2  C    0.814620
     3  C   -0.263714
     4  C    0.667197
     5  C   -0.262651
     6  N   -0.449207
     7  C    0.077221
     8  C    0.645061
     9  C    0.491018
    10  C    0.186719
    11  N   -1.755014
    12  O   -1.303140
    13  H    0.050383
    14  H   -0.018566
    15  H    0.127250
    16  H    0.218674
    17  H    0.143508
    18  H    0.037103
    19  H   -0.109692
    20  H   -0.500229
    21  H    0.228430
    22  H    0.049865
    23  H   -0.613166
    24  C   -0.519085
    25  H    0.344012
    26  H    0.564607
    27  H    0.673262
    28  H    0.119391
    29  O   -1.122596
    30  H    0.996180
    31  O   -1.609950
    32  H    0.611095
    33  H    1.012513
    34  H    0.513035
    35  H    0.496146
    36  H    0.250626
 Sum of APT charges =   1.00000
 APT charges with hydrogens summed into heavy atoms:
               1
     1  C   -0.291136
     2  C    0.814620
     3  C   -0.876880
     4  C    0.717062
     5  C   -0.034220
     6  N   -0.449207
     7  C   -0.032471
     8  C    1.007244
     9  C    0.599702
    10  C    0.274205
    11  N   -1.411002
    12  O   -0.065271
    24  C    0.740723
    29  O   -0.007025
    31  O    0.013657
 Electronic spatial extent (au):  <R**2>=           3893.4829
 Charge=              1.0000 electrons
 Dipole moment (field-independent basis, Debye):
    X=             -3.7573    Y=             -1.1851    Z=              0.2857  Tot=              3.9501
 Quadrupole moment (field-independent basis, Debye-Ang):
   XX=            -50.7234   YY=            -63.1819   ZZ=            -82.0139
   XY=              1.4633   XZ=             -2.9981   YZ=              3.2906
 Traceless Quadrupole moment (field-independent basis, Debye-Ang):
   XX=             14.5830   YY=              2.1245   ZZ=            -16.7075
   XY=              1.4633   XZ=             -2.9981   YZ=              3.2906
 Octapole moment (field-independent basis, Debye-Ang**2):
  XXX=             50.6098  YYY=            -33.1172  ZZZ=             17.0736  XYY=             30.2045
  XXY=            -31.0053  XXZ=            -25.6876  XZZ=              5.0488  YZZ=            -20.7452
  YYZ=             12.7999  XYZ=              5.5607
 Hexadecapole moment (field-independent basis, Debye-Ang**3):
 XXXX=          -2143.0748 YYYY=          -1331.0368 ZZZZ=           -359.5002 XXXY=            -44.9474
 XXXZ=           -171.4497 YYYX=            -84.3302 YYYZ=             70.6060 ZZZX=              7.6864
 ZZZY=            -36.5277 XXYY=           -556.5099 XXZZ=           -490.1499 YYZZ=           -321.8039
 XXYZ=             27.6221 YYXZ=              9.1097 ZZXY=            -16.5178
 N-N= 1.107924844158D+03 E-N=-3.898819582577D+03  KE= 7.239847867108D+02
  Exact polarizability:   0.000   0.000   0.000   0.000   0.000   0.000
 Approx polarizability: 179.052   1.103 171.388   0.439  15.913 142.652
 Calling FoFJK, ICntrl=    100147 FMM=F ISym2X=0 I1Cent= 0 IOpClX= 0 NMat=1 NMatS=1 NMatT=0.
 ***** Axes restored to original set *****
 -------------------------------------------------------------------
 Center     Atomic                   Forces (Hartrees/Bohr)
 Number     Number              X              Y              Z
 -------------------------------------------------------------------
      1        6           0.000385361   -0.000089641    0.000060828
      2        6           0.000444315   -0.000521689   -0.000519622
      3        6          -0.000228378    0.000072852   -0.000016344
      4        6          -0.000097545    0.000013388    0.000044060
      5        6           0.000035215   -0.000049719    0.000047392
      6        7          -0.000273266    0.000010040    0.000068718
      7        6          -0.000230024   -0.001459601    0.003961045
      8        6           0.000541194   -0.000721317   -0.000667231
      9        6           0.000110373    0.000187560   -0.000414947
     10        6          -0.004165635   -0.004895004    0.000709154
     11        7           0.003688302    0.016464466   -0.004378577
     12        8          -0.001044263    0.001052772    0.000130054
     13        1          -0.000339879   -0.000239025   -0.000261267
     14        1           0.000126885   -0.000420420    0.000087221
     15        1          -0.000022851    0.000138699   -0.000105855
     16        1          -0.000038794    0.000064269    0.000123599
     17        1           0.000018553   -0.001551385   -0.000004194
     18        1           0.000817987   -0.000812387    0.000478801
     19        1           0.000115881   -0.000079507    0.000361619
     20        1           0.000073777   -0.000032102    0.000021485
     21        1           0.000007958    0.000007962   -0.000018164
     22        1          -0.000035210   -0.000021300    0.000012311
     23        1          -0.000024723    0.000046967   -0.000016011
     24        6           0.002223593    0.022831818   -0.008986857
     25        1           0.002218194   -0.008597172    0.000990880
     26        1           0.000320996   -0.000039600    0.000301726
     27        1           0.000078679   -0.000054399   -0.000127136
     28        1           0.000280908   -0.000150323    0.000021322
     29        8          -0.000161361    0.000223248   -0.000005882
     30        1           0.000027968   -0.000012130    0.000002904
     31        8           0.000060475    0.000353655   -0.000180748
     32        1          -0.000017937   -0.000235924   -0.000032244
     33        1          -0.000091559   -0.000072253    0.000048613
     34        1           0.006063884   -0.006785001    0.007166914
     35        1          -0.008860402   -0.003602125    0.005858211
     36        1          -0.002008671   -0.011025670   -0.004761775
 -------------------------------------------------------------------
 Cartesian Forces:  Max     0.022831818 RMS     0.003687577
 FormGI is forming the generalized inverse of G from B-inverse, IUseBI=4.

 GradGradGradGradGradGradGradGradGradGradGradGradGradGradGradGradGradGrad
 Berny optimization.
 Internal  Forces:  Max     0.011331842 RMS     0.001717527
 Search for a local minimum.
 Step number   1 out of a maximum of  208
[...]
 .00001851,-0.00001981,-0.00001326,0.00002821,-0.00007305,-0.00000278,-
 0.00020139,0.00049792,-0.00038095,0.00380231,-0.00131446,-0.00303295,0
 .00884841,-0.00186774,-0.00414818,-0.00073611,-0.00038551,0.00111104,-
 0.00066245,0.00038191,-0.00027930,0.00109680,-0.00155182,0.00553228,0.
 00033216,0.00142633,-0.00038905,0.04866749,-0.06049816,0.03990432,-0.0
 0008182,0.00191723,-0.00144513,-0.00005275,-0.00077839,0.00038417,0.00
 008965,0.00022973,-0.00008044,-0.00033492,-0.00007651,0.00003401,0.000
 16027,-0.00046388,0.00031900,-0.00210830,0.00029814,0.00000872,-0.0000
 4618,0.00024167,-0.00002201,-0.00001242,-0.00004465,0.00004359,0.00001
 596,-0.00001375,0.00001332,-0.00013365,0.00005696,-0.00013906,0.000349
 51,-0.00018269,-0.00020867,0.00223215,-0.00005604,0.00053177,-0.000012
 48,-0.00001030,-0.00000239,0.00000322,0.00000257,-0.00000551,0.0000205
 5,-0.00001770,-0.00000204,0.00002904,-0.00002327,-0.00000585,-0.000015
 23,0.00000781,0.00000813,-0.00000215,0.00001364,0.00001969,-0.00005134
 ,-0.00002091,0.00008437,-0.00111428,0.00083409,0.00102083,0.00011220,-
 0.00009084,0.00005048,-0.00005554,0.00000844,-0.00000569,0.00001074,-0
 .00003918,0.00004336,-0.00005255,0.00000292,-0.00007291,-0.00087019,0.
 00028544,0.00044345,-0.00445085,-0.00179841,-0.00140699,-0.00015009,0.
 00015257,-0.00049737,0.00859336,0.00162420,0.00044862,-0.00987138,0.00
 621545,-0.00102838,-0.00193262,0.00013394,-0.00039739,-0.22435675,-0.2
 0732524,-0.00003861,0.21710780,0.00061333,0.00067923,-0.00049696,-0.00
 011712,-0.00009071,-0.00003263,-0.00019547,0.00028636,-0.00022156,-0.0
 0069030,0.00005952,-0.00015813,-0.00000212,-0.00113921,0.00073189,-0.0
 0260783,0.00125246,-0.00014911,0.00024600,0.00106383,0.00008385,-0.000
 03242,-0.00021160,0.00004916,0.00001142,-0.00000286,0.00007161,-0.0002
 1594,0.00007888,-0.00027837,0.00061621,-0.00060735,-0.00041778,0.00533
 029,-0.00262956,0.00410088,-0.00005838,-0.00004489,-0.00000960,-0.0000
 1910,-0.00002383,-0.00002425,0.00006511,-0.00002896,-0.00000890,0.0000
 9942,-0.00005788,-0.00006699,-0.00010369,-0.00000641,0.00002314,0.0000
 1504,0.00004197,0.00010777,-0.00002564,-0.00002471,0.00007939,0.001137
 98,0.00070100,-0.00011042,0.00015203,-0.00002291,0.00004810,-0.0001379
 1,0.00002780,-0.00000464,-0.00006022,0.00008253,-0.00000442,-0.0001246
 5,0.00016580,-0.00039194,-0.00174780,0.00085109,0.00092467,-0.00727104
 ,0.00343209,-0.00795050,0.00034010,0.00042328,-0.00017801,0.00559559,-
 0.00612903,0.00203880,0.00645256,0.00134320,0.00297717,-0.00143883,0.0
 0483591,-0.00346199,-0.15554581,-0.25152352,0.01220258,0.17352168,0.27
 178477,-0.00018689,-0.00074047,0.00051140,-0.00008763,0.00032903,-0.00
 024294,-0.00010073,-0.00009029,0.00007428,0.00010474,0.00007551,0.0000
 0354,-0.00009252,0.00015958,-0.00007970,0.00026539,-0.00001485,-0.0003
 9284,0.00004251,0.00002958,0.00009610,0.00000596,-0.00001245,-0.000022
 34,-0.00000339,0.00000528,0.00000514,-0.00001230,-0.00001474,-0.000007
 50,0.00006057,-0.00004049,-0.00007501,-0.00095066,0.00164805,-0.002182
 83,-0.00000705,-0.00000300,-0.00000196,0.00000018,-0.00000206,-0.00000
 579,-0.00000080,-0.00000075,-0.00000475,0.00000211,-0.00000389,0.00000
 035,0.00000285,0.00000420,0.00000079,-0.00000155,0.00001212,0.00000386
 ,0.00002182,0.00004018,0.00000002,0.00081963,-0.00028341,0.00023758,-0
 .00001560,0.00002469,-0.00001167,0.00000256,0.00000858,0.00000701,-0.0
 0001274,0.00002740,-0.00001210,0.00001647,-0.00001179,-0.00000078,-0.0
 0026343,0.00010481,0.00014992,-0.00049219,-0.00459190,0.00283438,-0.00
 071626,-0.00015121,-0.00044579,0.00020997,-0.00010950,0.00036023,-0.00
 104367,0.00505200,-0.00892710,-0.00074732,-0.00397530,0.00036321,-0.00
 288948,0.00936442,-0.01753367,0.00238163,-0.01057378,0.02548163,0.0000
 6582,-0.00017514,0.00030377,0.00000761,0.00009401,-0.00005010,-0.00003
 734,-0.00004037,-0.00001336,0.00000697,0.00001593,-0.00000527,-0.00000
 384,0.00002245,-0.00005621,0.00000106,0.00004566,-0.00002087,0.0000373
 3,0.00012183,0.00003275,-0.00000293,-0.00001644,-0.00000252,-0.0000036
 1,0.00000142,0.00000658,-0.00005241,-0.00000501,-0.00002345,0.00004954
 ,-0.00008457,0.00000539,-0.00062056,-0.00084681,-0.00161220,-0.0000072
 0,0.00000233,-0.00001273,-0.00000928,0.00000167,-0.00000291,0.00000479
 ,-0.00000902,0.00000051,0.00000761,-0.00001016,-0.00000213,-0.00001878
 ,0.00000321,0.00000883,0.00001583,-0.00001278,0.00001541,0.00000348,0.
 00001617,0.00000373,-0.00014939,0.00002749,-0.00024809,-0.00000340,0.0
 0000323,-0.00000814,0.00000005,0.00000246,0.00000818,-0.00000723,0.000
 02008,-0.00000853,-0.00003323,0.00012777,-0.00016453,0.00005721,0.0000
 6906,0.00002895,-0.00030961,0.00356978,0.00257040,-0.00030227,-0.00006
 838,-0.00026462,0.00013428,0.00025994,-0.00005658,-0.00288454,-0.00162
 434,-0.00020448,-0.00004557,-0.00075464,0.00016813,-0.19216976,0.24714
 827,-0.03966099,0.01704336,-0.02355983,0.00371047,0.17933510,0.0000200
 7,0.00010957,0.00001928,-0.00006227,0.00004463,-0.00004998,-0.00000948
 ,-0.00003341,0.00001427,-0.00000914,0.00002994,-0.00002458,-0.00004253
 ,-0.00009238,0.00002556,-0.00017966,0.00017643,-0.00003162,0.00004562,
 0.00002256,0.00000946,0.00000417,-0.00000164,-0.00001687,-0.00000672,0
 .00000908,0.00000334,0.00003496,-0.00001786,0.00004128,-0.00015490,-0.
 00003008,0.00012021,-0.00268570,-0.00017808,-0.00202649,-0.00000577,0.
 00000100,-0.00000678,-0.00001174,-0.00000585,0.00000034,0.00000170,0.0
 0000302,0.00000135,0.00000332,-0.00000274,-0.00000709,-0.00001332,-0.0
 0000480,0.00000524,0.00001363,-0.00001144,0.00001443,0.00002898,0.0000
 0999,-0.00002096,0.00019856,-0.00029882,0.00002816,0.00000925,0.000003
 86,-0.00000061,-0.00001046,0.00000331,-0.00000095,-0.00001242,0.000010
 48,-0.00000543,0.00000875,0.00011666,-0.00007357,0.00041425,-0.0000802
 4,-0.00020765,0.00338906,0.00067512,0.00316282,-0.00001936,0.00009866,
 0.00004564,0.00057459,0.00000882,0.00002610,-0.00184726,0.00039116,-0.
 00058393,-0.00022365,-0.00050538,0.00031125,0.19952547,-0.38978123,0.0
 4729224,0.02543950,-0.02442176,0.00372986,-0.22439071,0.41367000,0.000
 11059,0.00002182,-0.00017317,0.00001282,-0.00014908,0.00012062,0.00006
 536,0.00003085,-0.00001513,-0.00001167,-0.00001391,-0.00000180,0.00000
 175,-0.00000011,0.00003504,-0.00000825,-0.00011999,0.00003790,-0.00000
 531,-0.00003235,0.00005929,0.00000270,-0.00000899,-0.00000202,-0.00000
 079,0.00000193,-0.00000234,0.00000247,0.00000800,-0.00000416,0.0000613
 3,0.00002852,-0.00010134,-0.00193064,-0.00131646,-0.00240762,-0.000003
 04,-0.00000336,0.00000546,0.00000421,0.00000101,-0.00000074,-0.0000026
 1,0.00000122,-0.00000435,-0.00000219,0.00000085,0.00000535,0.00001762,
 0.00000525,-0.00000329,-0.00000503,0.00001332,-0.00000646,-0.00000081,
 -0.00000702,0.00001549,-0.00010807,0.00018409,0.00003748,0.00000413,0.
 00000125,0.00001216,0.00000235,0.00000086,0.00000037,0.00000921,-0.000
 01610,0.00001220,0.00005194,-0.00005515,0.00008378,-0.00024319,0.00003
 502,0.00011841,0.00104537,0.00442554,0.00267393,-0.00039020,0.00030461
 ,-0.00011797,-0.00004845,0.00003560,-0.00015385,-0.00012223,-0.0003187
 7,0.00000204,-0.00003548,-0.00015117,0.00025049,-0.03340225,0.04810144
 ,-0.01201872,-0.00054593,0.00079803,-0.00020390,0.03546249,-0.05179407
 ,0.01172093,0.00007422,0.00000123,0.00005524,0.00025456,0.00001959,0.0
 0018324,-0.00008371,-0.00004625,0.00006348,0.00000290,-0.00003081,-0.0
 0001397,0.00000517,-0.00000724,0.00001275,-0.00006739,0.00004317,-0.00
 000396,0.00014970,-0.00002231,0.00022553,-0.00013184,0.00000219,0.0000
 4584,0.00012873,-0.00033992,0.00011327,-0.00024868,-0.00167431,0.00029
 338,0.00786492,-0.00497708,0.00756087,-0.00013121,0.00011511,-0.000213
 53,-0.00005256,0.00004806,0.00023621,0.00022847,-0.00006995,0.00000636
 ,0.00015308,0.00005121,-0.00006300,0.00007304,0.00002768,-0.00001442,-
 0.00010547,0.00004747,-0.00013313,0.00036073,-0.00015896,0.00034459,0.
 00036346,0.00016687,0.00034392,0.00002015,-0.00004655,-0.00003615,-0.0
 0000135,-0.00000114,-0.00000474,-0.00000735,-0.00000470,0.00000411,0.0
 0000347,0.00000001,-0.00000480,-0.21567365,0.05240408,-0.13372448,0.00
 072343,0.00034639,0.00009730,-0.00000601,-0.00008527,0.00022242,0.0000
 3367,-0.00004574,0.00000906,0.00004876,-0.00003970,0.00000657,0.000028
 08,0.00011512,-0.00000633,-0.00000735,0.00000466,-0.00000409,0.0002173
 1,0.00026704,-0.00010149,-0.00005112,-0.00021813,-0.00002688,-0.000082
 04,0.00000588,0.00003180,0.22222054,0.00012907,-0.00014279,0.00012199,
 -0.00030892,0.00027806,-0.00019729,0.00019195,-0.00000966,-0.00002553,
 0.00001084,0.00007010,-0.00003729,-0.00001200,0.00002560,-0.00001124,0
 .00001449,0.00008169,-0.00006100,0.00151688,0.00115561,0.00249667,0.00
 010162,0.00001175,-0.00024951,-0.00009756,0.00020435,0.00009575,-0.004
 07021,-0.00421278,0.00133319,0.02488142,-0.01474710,0.02225724,-0.0002
 0398,-0.00001232,0.00002488,-0.00001007,0.00013422,0.00012980,0.000104
 40,-0.00011404,-0.00007154,0.00008814,0.00002842,-0.00010540,0.0000130
 6,0.00000753,-0.00003414,0.00001067,-0.00005764,-0.00010557,0.00141770
 ,-0.00049375,0.00094919,-0.00027943,-0.00095109,-0.00081966,-0.0001053
 9,0.00001099,-0.00002206,-0.00000313,0.00000788,-0.00000333,0.00001146
 ,0.00001738,-0.00000071,-0.00003106,0.00002463,0.00001047,0.04266764,-
 0.06241596,0.03399263,0.00092002,0.00050660,-0.00041794,-0.00004572,0.
 00013597,0.00013431,-0.00003116,-0.00001032,-0.00001368,-0.00005702,0.
 00002181,0.00000522,0.00004931,-0.00002899,-0.00001004,-0.00001335,0.0
 0000189,0.00000153,0.00006583,-0.00015443,-0.00005848,0.00000597,0.000
 01816,0.00000758,0.00009195,0.00008019,-0.00002147,-0.05138106,0.07346
 802,-0.00008803,0.00011578,-0.00004753,0.00020966,-0.00010618,0.000043
 23,-0.00003933,-0.00000540,0.00000702,0.00002704,-0.00003501,0.0000303
 9,0.00002393,0.00002297,0.00000281,0.00006145,-0.00003459,-0.00002262,
 0.00007837,-0.00148365,0.00033839,0.00011291,-0.00005650,-0.00002554,0
 .00024424,0.00019570,-0.00025726,0.00171507,0.00182374,-0.00063992,-0.
 01061761,0.00447488,-0.01072806,0.00020955,-0.00045942,0.00045070,0.00
 035497,0.00011543,0.00032720,-0.00016109,-0.00005483,0.00004307,-0.000
 12861,-0.00001047,0.00011658,-0.00000127,-0.00003551,0.00004624,0.0000
 2619,-0.00001597,0.00010401,-0.00065059,0.00047124,-0.00017002,0.00002
 200,-0.00049236,0.00057449,0.00001971,0.00005211,0.00005970,-0.0000010
 1,-0.00000288,0.00000204,-0.00000300,-0.00000313,0.00000003,0.00001938
 ,-0.00002449,-0.00000825,-0.12717463,0.04094253,-0.15148770,-0.0011154
 0,0.00048517,-0.00028794,0.00040164,0.00023280,-0.00017226,-0.00010099
 ,-0.00007348,-0.00007181,-0.00005361,0.00004911,-0.00000222,-0.0000370
 5,-0.00013533,-0.00000584,0.00000594,-0.00000643,0.00000975,-0.0003061
 4,-0.00028799,-0.00011315,0.00006766,0.00024390,0.00001698,0.00008132,
 0.00002003,0.00004810,0.14040499,-0.04750419,0.16127737,-0.00004673,0.
 00008066,-0.00004688,-0.00005542,-0.00003634,-0.00015429,0.00003378,0.
 00007663,-0.00004948,-0.00000364,-0.00000141,0.00001110,0.00000759,0.0
 0001376,0.00000419,0.00005354,-0.00002217,-0.00000128,-0.00021910,0.00
 028755,0.00070701,-0.00009927,0.00025979,0.00030633,0.00036400,0.00012
 694,0.00029281,0.00013439,0.00010795,-0.00064709,-0.00411980,-0.000856
 37,0.00240678,-0.00019359,0.00001275,0.00017028,0.00008920,-0.00013833
 ,0.00010681,-0.00021176,0.00045412,-0.00020396,0.00005118,-0.00003684,
 -0.00007580,0.00009501,0.00010506,-0.00020464,0.00031784,0.00043112,-0
 .00021986,0.00007318,-0.00003991,0.00001151,-0.00032649,-0.00009488,-0
 .00004942,0.00001047,0.00002886,0.00003212,0.00000273,-0.00000244,0.00
 000017,0.00000696,0.00000614,0.00000194,0.00002219,-0.00002371,0.00001
 189,-0.25746271,0.01297418,0.12270896,0.00145157,-0.00059845,-0.000518
 76,0.00018435,0.00008682,-0.00000056,-0.00002305,-0.00001922,-0.000043
 17,-0.00002497,0.00002660,-0.00000069,-0.00002050,-0.00006744,-0.00000
 532,0.00000472,-0.00000319,0.00000554,-0.00014961,-0.00011432,-0.00004
 027,0.00004748,0.00011834,0.00001234,0.00003275,-0.00000528,0.00000996
 ,-0.01602555,0.00110209,0.01306437,0.27194303,0.00002079,0.00001101,-0
 .00001596,0.00011918,-0.00014696,-0.00012145,-0.00001888,0.00014698,-0
 .00011309,-0.00005885,-0.00001703,0.00000647,0.00001800,-0.00004100,0.
 00003125,0.00006742,0.00004604,-0.00002823,-0.00056095,0.00183754,0.00
 089100,-0.00007748,-0.00092800,0.00018379,0.00026161,-0.00024670,0.000
 26001,-0.00113049,0.00149664,-0.00081564,-0.03342653,-0.00370365,0.021
 72366,-0.00088986,0.00080900,0.00020263,0.00034897,0.00000210,-0.00000
 896,0.00040249,-0.00022998,0.00010192,0.00004973,0.00010325,-0.0001488
 1,0.00008612,0.00015233,-0.00013366,0.00045121,-0.00113864,-0.00076127
 ,0.00007921,0.00008982,-0.00011040,0.00001970,-0.00004105,-0.00031779,
 -0.00000401,-0.00002163,-0.00000069,0.00000600,0.00000225,0.00000259,0
 .00000187,0.00000252,-0.00000067,0.00001513,-0.00001160,0.00003399,0.0
 2269647,-0.05068384,-0.01327566,0.00189906,-0.00631239,0.00082969,-0.0
 0005037,-0.00004819,0.00023046,-0.00005830,0.00008655,0.00000002,0.000
 00869,-0.00000675,0.00000462,0.00001523,0.00003350,-0.00000794,-0.0000
 0449,-0.00000003,-0.00000010,0.00004239,0.00010297,-0.00006897,-0.0000
 2302,-0.00006307,0.00000431,-0.00004283,-0.00001401,-0.00000205,0.0050
 7920,-0.00010916,-0.00487683,-0.01422379,0.05792650,-0.00002214,0.0000
 4462,-0.00003441,-0.00008375,0.00005878,0.00004206,0.00005320,-0.00008
 251,0.00001200,0.00002710,0.00001270,-0.00001289,-0.00000547,0.0000134
 5,-0.00001309,-0.00000828,-0.00001937,0.00000907,-0.00040602,-0.000716
 53,-0.00017856,0.00020208,-0.00017882,0.00047297,0.00013591,0.00035234
 ,0.00002884,0.00120571,-0.00047978,0.00021308,0.01310147,0.00147834,-0
 .00923121,0.00056840,-0.00018040,-0.00008885,-0.00003186,-0.00015011,-
 0.00031348,-0.00046131,0.00019550,0.00001265,-0.00014472,-0.00016230,0
 .00000881,-0.00014629,-0.00003700,-0.00001224,0.00017251,-0.00079398,-
 0.00000946,-0.00022378,-0.00018256,0.00001381,-0.00012545,0.00020957,0
 .00011906,0.00000161,0.00002418,0.00000473,-0.00000365,0.00000208,0.00
 000183,0.00000606,0.00000449,-0.00000277,-0.00001252,0.00003383,0.0000
 1506,0.11940739,-0.00734756,-0.11987939,-0.00120347,0.00256478,0.00041
 374,-0.00008152,0.00007408,-0.00029503,0.00003001,-0.00007756,0.000040
 16,-0.00001930,0.00000890,-0.00000570,0.00000689,-0.00002554,0.0000045
 9,-0.00000243,-0.00000122,0.00000104,-0.00002348,-0.00009054,0.0001143
 6,-0.00000202,0.00004524,0.00000781,0.00002824,0.00000978,-0.00000926,
 -0.01727685,0.00023004,0.01196412,-0.13410995,0.00489945,0.12576245,0.
 00002066,0.00002214,-0.00001414,0.00035413,-0.00036857,-0.00013327,-0.
 00011229,-0.00002898,-0.00002600,-0.00001909,-0.00002573,0.00003395,0.
 00000318,-0.00003910,0.00001886,-0.00006146,0.00001561,0.00003844,-0.0
 0032011,-0.00096465,0.00073889,-0.00023200,-0.00028722,0.00030786,-0.0
 0009365,0.00003115,0.00010827,0.00024721,0.00107915,0.00039517,-0.0020
 7463,-0.00658011,-0.00630069,0.00019012,0.00055318,0.00005955,-0.00000
 395,0.00052946,-0.00039801,0.00001074,0.00010301,0.00006561,0.00002012
 ,0.00001627,-0.00001209,0.00014985,0.00003121,-0.00013863,0.00013187,0
 .00004585,-0.00030516,-0.00011778,-0.00008600,-0.00002796,0.00004770,0
 .00002708,0.00044037,0.00003113,-0.00001764,-0.00002994,0.00000194,-0.
 00000432,-0.00000367,-0.00000970,-0.00000748,0.00000558,0.00000683,0.0
 0000164,0.00000076,-0.04983358,-0.01109818,-0.01155852,0.00033277,-0.0
 0087311,-0.00078923,-0.00030452,-0.00011348,-0.00032368,0.00006730,0.0
 0000645,0.00008419,0.00006868,-0.00005349,-0.00000315,-0.00000370,0.00
 010271,0.00000986,0.00000034,0.00000220,-0.00000308,0.00017365,0.00016
 043,0.00020158,-0.00005872,-0.00014288,-0.00000812,-0.00005982,-0.0000
 2736,-0.00002997,-0.00027910,-0.01674443,-0.01667206,0.00405624,0.0188
 8139,0.01944767,0.04766962,0.00013879,-0.00016251,0.00008858,0.0003486
 5,-0.00082423,-0.00109455,-0.00027982,-0.00001954,-0.00004768,-0.00003
 980,0.00001069,0.00013672,-0.00003524,-0.00004065,0.00000842,-0.000117
 03,0.00000999,0.00011415,-0.00146792,-0.00204141,0.00468334,-0.0002889
 6,0.00014500,-0.00002320,0.00016458,0.00005079,-0.00001919,-0.00119882
 ,0.00048294,-0.00221352,-0.00316848,-0.02821384,-0.02158231,0.00016656
 ,0.00026970,0.00023168,0.00078820,-0.00005943,0.00088905,0.00006169,0.
 00000756,0.00003754,0.00000375,0.00004933,0.00001692,0.00012500,0.0000
 1119,-0.00002282,0.00012944,-0.00006056,-0.00002608,-0.00004593,0.0004
 2785,0.00015270,-0.00007169,0.00004910,0.00007361,-0.00000214,-0.00002
 867,-0.00004104,0.00000348,-0.00001383,-0.00002257,-0.00002083,-0.0000
 1612,0.00001556,0.00002145,-0.00005064,-0.00005579,-0.01191801,-0.1711
 8090,-0.13389617,0.00052545,-0.00014032,-0.00095819,-0.00015762,0.0000
 4244,-0.00015685,-0.00007080,0.00002424,0.00002321,0.00008888,-0.00006
 101,0.00000570,-0.00003421,0.00008632,-0.00000593,0.00000449,0.0000016
 7,0.00000251,0.00013507,0.00007745,0.00007082,-0.00002720,-0.00009961,
 -0.00000732,-0.00000366,0.00001527,0.00001086,0.00040416,0.00716920,0.
 00645925,-0.00001528,0.00091470,0.00026363,0.01585380,0.19316784,-0.00
 009521,0.00009730,-0.00005473,0.00020967,0.00054360,0.00080834,0.00002
 010,-0.00003963,0.00003867,0.00001991,-0.00005867,-0.00006443,0.000049
 41,0.00001053,0.00001082,0.00002523,-0.00000518,-0.00006752,0.00042311
 ,0.00200384,-0.00217001,-0.00002135,0.00006930,0.00005416,-0.00008583,
 -0.00001464,-0.00013259,0.00075227,0.00060551,0.00131586,0.00116835,0.
 01706199,0.01176237,-0.00005438,0.00010051,-0.00031319,-0.00015379,0.0
 0029692,0.00005649,-0.00003953,-0.00001988,-0.00006473,-0.00002072,0.0
 0001485,0.00005534,-0.00009912,-0.00002792,0.00010641,-0.00016834,0.00
 015013,0.00017303,0.00016767,0.00002775,0.00012571,0.00035416,0.000088
 59,0.00025997,0.00002266,0.00001112,0.00001196,-0.00000369,0.00000358,
 0.00000874,0.00000112,0.00000394,-0.00000085,-0.00001668,0.00001763,0.
 00000613,-0.01493630,-0.14678668,-0.20909504,-0.00020461,-0.00042815,0
 .00085720,-0.00003765,-0.00009899,0.00005989,0.00007009,0.00007568,0.0
 0003063,-0.00001970,0.00001528,-0.00000556,0.00000844,-0.00001425,0.00
 000773,0.00000148,0.00000069,-0.00000460,-0.00001793,0.00004068,0.0000
 1375,0.00000356,0.00001381,-0.00000356,-0.00001743,-0.00003007,-0.0000
 1293,0.00136688,-0.01202038,-0.01142210,-0.00349267,-0.00859773,-0.009
 17595,0.01482081,0.14688895,0.21682457\\0.,0.00000015,-0.00000069,0.00
 000011,0.00000030,0.00000009,-0.00000023,-0.00000009,0.,-0.00000044,-0
 .00000001,-0.00000052,-0.00000007,-0.00000029,-0.00000005,0.00000165,-
 0.00000071,0.00000097,0.00000120,0.00000069,-0.00000190,0.00000038,-0.
 00000270,0.00000002,0.00000050,0.00000102,-0.00000165,-0.00000070,-0.0
 0000007,-0.00000043,-0.00000002,-0.00000193,0.00000053,0.00000087,0.00
 000355,0.00000015,0.,0.00000027,-0.00000051,0.00000031,-0.00000038,0.0
 0000008,-0.00000033,-0.00000047,-0.00000062,-0.00000021,-0.00000050,0.
 00000082,-0.00000053,-0.00000019,0.00000031,-0.00000038,-0.00000089,-0
 .00000037,-0.00000033,0.00000061,0.00000017,-0.00000020,0.00000036,0.0
 0000008,-0.00000036,0.00000013,-0.00000030,-0.00000029,-0.00000019,-0.
 00000053,-0.00000047,-0.00000007,-0.00000077,0.00000068,-0.00000346,0.
 00000341,-0.00000131,0.00000111,-0.00000127,-0.00000026,-0.00000159,0.
 00000030,0.00000136,-0.00000134,0.00000097,0.00000085,-0.00000068,-0.0
 0000154,-0.00000202,0.00000277,0.00000097,-0.00000023,0.00000073,0.000
 00038,-0.00000038,0.00000079,-0.00000033,-0.00000031,-0.00000072,0.000
 00069,0.00000055,0.00000090,0.00000063,-0.00000071,0.00000082,-0.00000
 023,0.00000070,0.00000098,0.00000016,0.00000059,0.00000111,0.00000099\
 \\@


 SOME THINGS ARE EASY, THEY ARE ONLY HARD TO DO.
            -- A. EINSTEIN TO J. O. HIRSCHFELDER
 THE ONLY TROUBLE WITH A SURE THING IS THE UNCERTAINTY.
     -- FROM A TEABAG (BELONGING TO W.H.?)
 Job cpu time:       1 days  0 hours 30 minutes 19.6 seconds.
 Elapsed time:       0 days  0 hours 52 minutes 33.0 seconds.
 File lengths (MBytes):  RWF=   1056 Int=      0 D2E=      0 Chk=     28 Scr=      8
 Normal termination of Gaussian 16 at Tue Jul 21 17:30:09 2020.
