 Entering Gaussian System, Link 0=g16
 Input=Nic3h3bL_4.gjf
 Output=Nic3h3bL_4.log
 Initial command:
 /sw/contrib/gaussian/g16/A03/g16/l1.exe "/gscratch/scrubbed/gds001/Gau-27003.inp" -scrdir="/gscratch/scrubbed/gds001/"
 Entering Link 1 = /sw/contrib/gaussian/g16/A03/g16/l1.exe PID=     27004.
  
 Copyright (c) 1988,1990,1992,1993,1995,1998,2003,2009,2016,
            Gaussian, Inc.  All Rights Reserved.
  
 This is part of the Gaussian(R) 16 program.  It is based on
 the Gaussian(R) 09 system (copyright 2009, Gaussian, Inc.),
 the Gaussian(R) 03 system (copyright 2003, Gaussian, Inc.),
 the Gaussian(R) 98 system (copyright 1998, Gaussian, Inc.),
 the Gaussian(R) 94 system (copyright 1995, Gaussian, Inc.),
 the Gaussian 92(TM) system (copyright 1992, Gaussian, Inc.),
 the Gaussian 90(TM) system (copyright 1990, Gaussian, Inc.),
 the Gaussian 88(TM) system (copyright 1988, Gaussian, Inc.),
 the Gaussian 86(TM) system (copyright 1986, Carnegie Mellon
 University), and the Gaussian 82(TM) system (copyright 1983,
 Carnegie Mellon University). Gaussian is a federally registered
 trademark of Gaussian, Inc.
  
 This software contains proprietary and confidential information,
 including trade secrets, belonging to Gaussian, Inc.
  
 This software is provided under written license and may be
 used, copied, transmitted, or stored only in accord with that
 written license.
  
 The following legend is applicable only to US Government
 contracts under FAR:
  
                    RESTRICTED RIGHTS LEGEND
  
 Use, reproduction and disclosure by the US Government is
 subject to restrictions as set forth in subparagraphs (a)
 and (c) of the Commercial Computer Software - Restricted
 Rights clause in FAR 52.227-19.
  
 Gaussian, Inc.
 340 Quinnipiac St., Bldg. 40, Wallingford CT 06492
  
  
 ---------------------------------------------------------------
 Warning -- This program may not be used in any manner that
 competes with the business of Gaussian, Inc. or will provide
 assistance to any competitor of Gaussian, Inc.  The licensee
 of this program is prohibited from giving any competitor of
 Gaussian, Inc. access to this program.  By using this program,
 the user acknowledges that Gaussian, Inc. is engaged in the
 business of creating and licensing software in the field of
 computational chemistry and represents and warrants to the
 licensee that it is not a competitor of Gaussian, Inc. and that
 it will not use this program in any manner prohibited above.
 ---------------------------------------------------------------
  

 Cite this work as:
 Gaussian 16, Revision A.03,
 M. J. Frisch, G. W. Trucks, H. B. Schlegel, G. E. Scuseria, 
 M. A. Robb, J. R. Cheeseman, G. Scalmani, V. Barone, 
 G. A. Petersson, H. Nakatsuji, X. Li, M. Caricato, A. V. Marenich, 
 J. Bloino, B. G. Janesko, R. Gomperts, B. Mennucci, H. P. Hratchian, 
 J. V. Ortiz, A. F. Izmaylov, J. L. Sonnenberg, D. Williams-Young, 
 F. Ding, F. Lipparini, F. Egidi, J. Goings, B. Peng, A. Petrone, 
 T. Henderson, D. Ranasinghe, V. G. Zakrzewski, J. Gao, N. Rega, 
 G. Zheng, W. Liang, M. Hada, M. Ehara, K. Toyota, R. Fukuda, 
 J. Hasegawa, M. Ishida, T. Nakajima, Y. Honda, O. Kitao, H. Nakai, 
 T. Vreven, K. Throssell, J. A. Montgomery, Jr., J. E. Peralta, 
 F. Ogliaro, M. J. Bearpark, J. J. Heyd, E. N. Brothers, K. N. Kudin, 
 V. N. Staroverov, T. A. Keith, R. Kobayashi, J. Normand, 
 K. Raghavachari, A. P. Rendell, J. C. Burant, S. S. Iyengar, 
 J. Tomasi, M. Cossi, J. M. Millam, M. Klene, C. Adamo, R. Cammi, 
 J. W. Ochterski, R. L. Martin, K. Morokuma, O. Farkas, 
 J. B. Foresman, and D. J. Fox, Gaussian, Inc., Wallingford CT, 2016.
 
 ******************************************
 Gaussian 16:  ES64L-G16RevA.03 25-Dec-2016
                11-Feb-2023 
 ******************************************
 %nprocshared=28
 Will use up to   28 processors via shared memory.
 %mem=41GB
 ----------------------------------------------------------------
 # wB97XD/aug-cc-pVDZ opt=(TS,CalcAll,MaxStep=4,NoEigenTest) freq
 ----------------------------------------------------------------
 1/5=1,8=4,10=4,11=1,18=20,26=3,38=1/1,3;
 2/9=110,12=2,17=6,18=5,40=1/2;
 3/5=16,7=10,11=2,25=1,30=1,71=2,74=-58,140=1/1,2,3;
 4//1;
 5/5=2,38=5/2;
 8/6=4,10=90,11=11/1;
 11/6=1,8=1,9=11,15=111,16=1/1,2,10;
 10/6=1/2;
 6/7=2,8=2,9=2,10=2,18=1,28=1/1;
 7/10=1,25=1/1,2,3,16;
 1/5=1,8=4,10=4,11=1,18=20,26=3/3(3);
 2/9=110/2;
 7/8=1,9=1,25=1,44=-1/16;
 99//99;
 2/9=110/2;
 3/5=16,7=10,11=2,25=1,30=1,71=2,74=-58,140=1/1,2,3;
 4/5=5,16=3,69=1/1;
 5/5=2,38=5/2;
 8/6=4,10=90,11=11/1;
 11/6=1,8=1,9=11,15=111,16=1/1,2,10;
 10/6=1/2;
 7/10=1,25=1/1,2,3,16;
 1/5=1,8=4,10=4,11=1,18=20,26=3/3(-8);
 2/9=110/2;
 6/7=2,8=2,9=2,10=2,18=1,19=2,28=1/1;
 7/8=1,9=1,25=1,44=-1/16;
 99//99;
 ----
 blah
 ----
 Symbolic Z-matrix:
 Charge =  1 Multiplicity = 1
 N                    -1.85797  -0.10579   0.59686 
 C                    -1.35532  -1.00697  -0.4715 
 C                    -1.73674  -0.2905   -1.78857 
 C                    -2.77285   0.78062  -1.37966 
 C                    -3.12617   0.42085   0.06033 
 C                     0.10987  -1.32295  -0.28986 
 C                     1.06968  -0.32245  -0.42461 
 N                     2.37556  -0.50679  -0.2235 
 C                     2.80209  -1.73437   0.09908 
 C                     1.932    -2.80993   0.23311 
 C                     0.56782  -2.59646   0.04491 
 O                     3.29629   1.95624  -0.29129 
 O                    -0.52663   2.04707   1.26373 
 H                    -3.46434   1.27273   0.66189 
 H                    -3.65426   0.78632  -2.028 
 H                    -2.32756   1.78255  -1.41631 
 H                    -2.15162  -1.01581  -2.49598 
 H                    -0.86294   0.15842  -2.27248 
 H                    -3.90483  -0.36094   0.09681 
 H                    -1.918    -1.95473  -0.40492 
 H                     0.77195   0.68484  -0.71726 
 H                     3.87441  -1.85431   0.25138 
 H                     2.31809  -3.79498   0.48773 
 H                    -0.13762  -3.42066   0.15778 
 C                    -2.01563  -0.78504   1.88273 
 H                     3.12761   0.95614  -0.26466 
 H                    -0.99624   1.17021   0.9493 
 H                    -0.43581   2.02533   2.21961 
 H                     2.15308   2.67779  -0.12096 
 O                     1.17656   3.13668  -0.08699 
 H                     1.20077   4.09578  -0.01799 
 H                     0.43865   2.67501   0.5539 
 H                    -2.42532  -0.08362   2.61971 
 H                    -1.04074  -1.1402    2.23864 
 H                    -2.70073  -1.64534   1.80448 
 H                     4.09409   2.15672   0.20453 
 
 Add virtual bond connecting atoms H32        and O13        Dist= 2.56D+00.
 Add virtual bond connecting atoms H29        and O12        Dist= 2.57D+00.
 Add virtual bond connecting atoms H26        and N8         Dist= 3.11D+00.
 Add virtual bond connecting atoms H27        and N1         Dist= 2.98D+00.

 GradGradGradGradGradGradGradGradGradGradGradGradGradGradGradGradGradGrad
 Berny optimization.
 Initialization pass.
                           ----------------------------
                           !    Initial Parameters    !
                           ! (Angstroms and Degrees)  !
 --------------------------                            --------------------------
 ! Name  Definition              Value          Derivative Info.                !
 --------------------------------------------------------------------------------
 ! R1    R(1,2)                  1.4853         calculate D2E/DX2 analytically  !
 ! R2    R(1,5)                  1.4743         calculate D2E/DX2 analytically  !
 ! R3    R(1,25)                 1.4628         calculate D2E/DX2 analytically  !
 ! R4    R(1,27)                 1.5795         calculate D2E/DX2 analytically  !
 ! R5    R(2,3)                  1.5471         calculate D2E/DX2 analytically  !
 ! R6    R(2,6)                  1.5098         calculate D2E/DX2 analytically  !
 ! R7    R(2,20)                 1.1042         calculate D2E/DX2 analytically  !
 ! R8    R(3,4)                  1.5453         calculate D2E/DX2 analytically  !
 ! R9    R(3,17)                 1.0948         calculate D2E/DX2 analytically  !
 ! R10   R(3,18)                 1.0951         calculate D2E/DX2 analytically  !
 ! R11   R(4,5)                  1.5257         calculate D2E/DX2 analytically  !
 ! R12   R(4,15)                 1.0942         calculate D2E/DX2 analytically  !
 ! R13   R(4,16)                 1.097          calculate D2E/DX2 analytically  !
 ! R14   R(5,14)                 1.0963         calculate D2E/DX2 analytically  !
 ! R15   R(5,19)                 1.104          calculate D2E/DX2 analytically  !
 ! R16   R(6,7)                  1.393          calculate D2E/DX2 analytically  !
 ! R17   R(6,11)                 1.3941         calculate D2E/DX2 analytically  !
 ! R18   R(7,8)                  1.3341         calculate D2E/DX2 analytically  !
 ! R19   R(7,21)                 1.0904         calculate D2E/DX2 analytically  !
 ! R20   R(8,9)                  1.339          calculate D2E/DX2 analytically  !
 ! R21   R(8,26)                 1.6454         calculate D2E/DX2 analytically  !
 ! R22   R(9,10)                 1.3899         calculate D2E/DX2 analytically  !
 ! R23   R(9,22)                 1.0897         calculate D2E/DX2 analytically  !
 ! R24   R(10,11)                1.3936         calculate D2E/DX2 analytically  !
 ! R25   R(10,23)                1.0882         calculate D2E/DX2 analytically  !
 ! R26   R(11,24)                1.0907         calculate D2E/DX2 analytically  !
 ! R27   R(12,26)                1.0146         calculate D2E/DX2 analytically  !
 ! R28   R(12,29)                1.3626         calculate D2E/DX2 analytically  !
 ! R29   R(12,36)                0.9605         calculate D2E/DX2 analytically  !
 ! R30   R(13,27)                1.0432         calculate D2E/DX2 analytically  !
 ! R31   R(13,28)                0.9604         calculate D2E/DX2 analytically  !
 ! R32   R(13,32)                1.3527         calculate D2E/DX2 analytically  !
 ! R33   R(25,33)                1.0968         calculate D2E/DX2 analytically  !
 ! R34   R(25,34)                1.0969         calculate D2E/DX2 analytically  !
 ! R35   R(25,35)                1.1026         calculate D2E/DX2 analytically  !
 ! R36   R(29,30)                1.0795         calculate D2E/DX2 analytically  !
 ! R37   R(30,31)                0.9619         calculate D2E/DX2 analytically  !
 ! R38   R(30,32)                1.0809         calculate D2E/DX2 analytically  !
 ! A1    A(2,1,5)              104.2452         calculate D2E/DX2 analytically  !
 ! A2    A(2,1,25)             112.7698         calculate D2E/DX2 analytically  !
 ! A3    A(2,1,27)             117.775          calculate D2E/DX2 analytically  !
 ! A4    A(5,1,25)             113.1457         calculate D2E/DX2 analytically  !
 ! A5    A(5,1,27)             105.1844         calculate D2E/DX2 analytically  !
 ! A6    A(25,1,27)            103.7554         calculate D2E/DX2 analytically  !
 ! A7    A(1,2,3)              104.3549         calculate D2E/DX2 analytically  !
 ! A8    A(1,2,6)              111.6444         calculate D2E/DX2 analytically  !
 ! A9    A(1,2,20)             107.7548         calculate D2E/DX2 analytically  !
 ! A10   A(3,2,6)              116.0135         calculate D2E/DX2 analytically  !
 ! A11   A(3,2,20)             108.8561         calculate D2E/DX2 analytically  !
 ! A12   A(6,2,20)             107.9164         calculate D2E/DX2 analytically  !
 ! A13   A(2,3,4)              105.1309         calculate D2E/DX2 analytically  !
 ! A14   A(2,3,17)             109.6752         calculate D2E/DX2 analytically  !
 ! A15   A(2,3,18)             111.6735         calculate D2E/DX2 analytically  !
 ! A16   A(4,3,17)             112.0921         calculate D2E/DX2 analytically  !
 ! A17   A(4,3,18)             111.5787         calculate D2E/DX2 analytically  !
 ! A18   A(17,3,18)            106.7644         calculate D2E/DX2 analytically  !
 ! A19   A(3,4,5)              103.9788         calculate D2E/DX2 analytically  !
 ! A20   A(3,4,15)             112.7624         calculate D2E/DX2 analytically  !
 ! A21   A(3,4,16)             110.6126         calculate D2E/DX2 analytically  !
 ! A22   A(5,4,15)             111.9575         calculate D2E/DX2 analytically  !
 ! A23   A(5,4,16)             109.9313         calculate D2E/DX2 analytically  !
 ! A24   A(15,4,16)            107.6032         calculate D2E/DX2 analytically  !
 ! A25   A(1,5,4)              103.209          calculate D2E/DX2 analytically  !
 ! A26   A(1,5,14)             110.0729         calculate D2E/DX2 analytically  !
 ! A27   A(1,5,19)             109.9819         calculate D2E/DX2 analytically  !
 ! A28   A(4,5,14)             113.9584         calculate D2E/DX2 analytically  !
 ! A29   A(4,5,19)             111.1925         calculate D2E/DX2 analytically  !
 ! A30   A(14,5,19)            108.3341         calculate D2E/DX2 analytically  !
 ! A31   A(2,6,7)              120.4448         calculate D2E/DX2 analytically  !
 ! A32   A(2,6,11)             122.6038         calculate D2E/DX2 analytically  !
 ! A33   A(7,6,11)             116.9357         calculate D2E/DX2 analytically  !
 ! A34   A(6,7,8)              124.1004         calculate D2E/DX2 analytically  !
 ! A35   A(6,7,21)             120.0881         calculate D2E/DX2 analytically  !
 ! A36   A(8,7,21)             115.8104         calculate D2E/DX2 analytically  !
 ! A37   A(7,8,9)              118.3467         calculate D2E/DX2 analytically  !
 ! A38   A(7,8,26)             108.7098         calculate D2E/DX2 analytically  !
 ! A39   A(9,8,26)             132.4957         calculate D2E/DX2 analytically  !
 ! A40   A(8,9,10)             122.2265         calculate D2E/DX2 analytically  !
 ! A41   A(8,9,22)             116.6178         calculate D2E/DX2 analytically  !
 ! A42   A(10,9,22)            121.1555         calculate D2E/DX2 analytically  !
 ! A43   A(9,10,11)            118.7668         calculate D2E/DX2 analytically  !
 ! A44   A(9,10,23)            120.0622         calculate D2E/DX2 analytically  !
 ! A45   A(11,10,23)           121.1695         calculate D2E/DX2 analytically  !
 ! A46   A(6,11,10)            119.5984         calculate D2E/DX2 analytically  !
 ! A47   A(6,11,24)            120.1759         calculate D2E/DX2 analytically  !
 ! A48   A(10,11,24)           120.2256         calculate D2E/DX2 analytically  !
 ! A49   A(26,12,29)           112.2859         calculate D2E/DX2 analytically  !
 ! A50   A(26,12,36)           109.2871         calculate D2E/DX2 analytically  !
 ! A51   A(29,12,36)           121.4558         calculate D2E/DX2 analytically  !
 ! A52   A(27,13,28)           108.8753         calculate D2E/DX2 analytically  !
 ! A53   A(27,13,32)           123.5896         calculate D2E/DX2 analytically  !
 ! A54   A(28,13,32)           117.7282         calculate D2E/DX2 analytically  !
 ! A55   A(1,25,33)            109.5099         calculate D2E/DX2 analytically  !
 ! A56   A(1,25,34)            109.8643         calculate D2E/DX2 analytically  !
 ! A57   A(1,25,35)            111.5257         calculate D2E/DX2 analytically  !
 ! A58   A(33,25,34)           108.7245         calculate D2E/DX2 analytically  !
 ! A59   A(33,25,35)           108.3359         calculate D2E/DX2 analytically  !
 ! A60   A(34,25,35)           108.8225         calculate D2E/DX2 analytically  !
 ! A61   A(8,26,12)            162.3726         calculate D2E/DX2 analytically  !
 ! A62   A(29,30,31)           113.7883         calculate D2E/DX2 analytically  !
 ! A63   A(29,30,32)           117.0418         calculate D2E/DX2 analytically  !
 ! A64   A(31,30,32)           113.6106         calculate D2E/DX2 analytically  !
 ! A65   L(1,27,13,7,-1)       187.1349         calculate D2E/DX2 analytically  !
 ! A66   L(12,29,30,2,-1)      172.4778         calculate D2E/DX2 analytically  !
 ! A67   L(13,32,30,7,-1)      177.1614         calculate D2E/DX2 analytically  !
 ! A68   L(1,27,13,7,-2)       181.6657         calculate D2E/DX2 analytically  !
 ! A69   L(12,29,30,2,-2)      184.8755         calculate D2E/DX2 analytically  !
 ! A70   L(13,32,30,7,-2)      176.1215         calculate D2E/DX2 analytically  !
 ! D1    D(5,1,2,3)             37.1605         calculate D2E/DX2 analytically  !
 ! D2    D(5,1,2,6)            163.2192         calculate D2E/DX2 analytically  !
 ! D3    D(5,1,2,20)           -78.449          calculate D2E/DX2 analytically  !
 ! D4    D(25,1,2,3)           160.2795         calculate D2E/DX2 analytically  !
 ! D5    D(25,1,2,6)           -73.6618         calculate D2E/DX2 analytically  !
 ! D6    D(25,1,2,20)           44.67           calculate D2E/DX2 analytically  !
 ! D7    D(27,1,2,3)           -78.8884         calculate D2E/DX2 analytically  !
 ! D8    D(27,1,2,6)            47.1702         calculate D2E/DX2 analytically  !
 ! D9    D(27,1,2,20)          165.5021         calculate D2E/DX2 analytically  !
 ! D10   D(2,1,5,4)            -44.7286         calculate D2E/DX2 analytically  !
 ! D11   D(2,1,5,14)          -166.724          calculate D2E/DX2 analytically  !
 ! D12   D(2,1,5,19)            73.9866         calculate D2E/DX2 analytically  !
 ! D13   D(25,1,5,4)          -167.6024         calculate D2E/DX2 analytically  !
 ! D14   D(25,1,5,14)           70.4022         calculate D2E/DX2 analytically  !
 ! D15   D(25,1,5,19)          -48.8872         calculate D2E/DX2 analytically  !
 ! D16   D(27,1,5,4)            79.8182         calculate D2E/DX2 analytically  !
 ! D17   D(27,1,5,14)          -42.1772         calculate D2E/DX2 analytically  !
 ! D18   D(27,1,5,19)         -161.4666         calculate D2E/DX2 analytically  !
 ! D19   D(2,1,13,28)         -129.5931         calculate D2E/DX2 analytically  !
 ! D20   D(2,1,13,32)           17.6086         calculate D2E/DX2 analytically  !
 ! D21   D(5,1,13,28)          114.3818         calculate D2E/DX2 analytically  !
 ! D22   D(5,1,13,32)          -98.4165         calculate D2E/DX2 analytically  !
 ! D23   D(25,1,13,28)          -3.4585         calculate D2E/DX2 analytically  !
 ! D24   D(25,1,13,32)         143.7432         calculate D2E/DX2 analytically  !
 ! D25   D(2,1,25,33)         -177.7722         calculate D2E/DX2 analytically  !
 ! D26   D(2,1,25,34)           62.8789         calculate D2E/DX2 analytically  !
 ! D27   D(2,1,25,35)          -57.8697         calculate D2E/DX2 analytically  !
 ! D28   D(5,1,25,33)          -59.7598         calculate D2E/DX2 analytically  !
 ! D29   D(5,1,25,34)         -179.1088         calculate D2E/DX2 analytically  !
 ! D30   D(5,1,25,35)           60.1426         calculate D2E/DX2 analytically  !
 ! D31   D(27,1,25,33)          53.6879         calculate D2E/DX2 analytically  !
 ! D32   D(27,1,25,34)         -65.6611         calculate D2E/DX2 analytically  !
 ! D33   D(27,1,25,35)         173.5903         calculate D2E/DX2 analytically  !
 ! D34   D(1,2,3,4)            -15.198          calculate D2E/DX2 analytically  !
 ! D35   D(1,2,3,17)          -135.8916         calculate D2E/DX2 analytically  !
 ! D36   D(1,2,3,18)           105.9621         calculate D2E/DX2 analytically  !
 ! D37   D(6,2,3,4)           -138.4653         calculate D2E/DX2 analytically  !
 ! D38   D(6,2,3,17)           100.8412         calculate D2E/DX2 analytically  !
 ! D39   D(6,2,3,18)           -17.3052         calculate D2E/DX2 analytically  !
 ! D40   D(20,2,3,4)            99.638          calculate D2E/DX2 analytically  !
 ! D41   D(20,2,3,17)          -21.0555         calculate D2E/DX2 analytically  !
 ! D42   D(20,2,3,18)         -139.2019         calculate D2E/DX2 analytically  !
 ! D43   D(1,2,6,7)            -66.4698         calculate D2E/DX2 analytically  !
 ! D44   D(1,2,6,11)           112.0476         calculate D2E/DX2 analytically  !
 ! D45   D(3,2,6,7)             52.9012         calculate D2E/DX2 analytically  !
 ! D46   D(3,2,6,11)          -128.5814         calculate D2E/DX2 analytically  !
 ! D47   D(20,2,6,7)           175.295          calculate D2E/DX2 analytically  !
 ! D48   D(20,2,6,11)           -6.1877         calculate D2E/DX2 analytically  !
 ! D49   D(2,3,4,5)            -11.2798         calculate D2E/DX2 analytically  !
 ! D50   D(2,3,4,15)          -132.7683         calculate D2E/DX2 analytically  !
 ! D51   D(2,3,4,16)           106.6866         calculate D2E/DX2 analytically  !
 ! D52   D(17,3,4,5)           107.8094         calculate D2E/DX2 analytically  !
 ! D53   D(17,3,4,15)          -13.679          calculate D2E/DX2 analytically  !
 ! D54   D(17,3,4,16)         -134.2241         calculate D2E/DX2 analytically  !
 ! D55   D(18,3,4,5)          -132.5019         calculate D2E/DX2 analytically  !
 ! D56   D(18,3,4,15)          106.0096         calculate D2E/DX2 analytically  !
 ! D57   D(18,3,4,16)          -14.5355         calculate D2E/DX2 analytically  !
 ! D58   D(3,4,5,1)             33.9947         calculate D2E/DX2 analytically  !
 ! D59   D(3,4,5,14)           153.3404         calculate D2E/DX2 analytically  !
 ! D60   D(3,4,5,19)           -83.8758         calculate D2E/DX2 analytically  !
 ! D61   D(15,4,5,1)           156.018          calculate D2E/DX2 analytically  !
 ! D62   D(15,4,5,14)          -84.6363         calculate D2E/DX2 analytically  !
 ! D63   D(15,4,5,19)           38.1475         calculate D2E/DX2 analytically  !
 ! D64   D(16,4,5,1)           -84.4411         calculate D2E/DX2 analytically  !
 ! D65   D(16,4,5,14)           34.9046         calculate D2E/DX2 analytically  !
 ! D66   D(16,4,5,19)          157.6884         calculate D2E/DX2 analytically  !
 ! D67   D(2,6,7,8)            176.9793         calculate D2E/DX2 analytically  !
 ! D68   D(2,6,7,21)            -3.413          calculate D2E/DX2 analytically  !
 ! D69   D(11,6,7,8)            -1.6197         calculate D2E/DX2 analytically  !
 ! D70   D(11,6,7,21)          177.9879         calculate D2E/DX2 analytically  !
 ! D71   D(2,6,11,10)         -178.2471         calculate D2E/DX2 analytically  !
 ! D72   D(2,6,11,24)            1.8127         calculate D2E/DX2 analytically  !
 ! D73   D(7,6,11,10)            0.3192         calculate D2E/DX2 analytically  !
 ! D74   D(7,6,11,24)         -179.621          calculate D2E/DX2 analytically  !
 ! D75   D(6,7,8,9)              1.5693         calculate D2E/DX2 analytically  !
 ! D76   D(6,7,8,26)          -171.702          calculate D2E/DX2 analytically  !
 ! D77   D(21,7,8,9)          -178.0536         calculate D2E/DX2 analytically  !
 ! D78   D(21,7,8,26)            8.6751         calculate D2E/DX2 analytically  !
 ! D79   D(7,8,9,10)            -0.2039         calculate D2E/DX2 analytically  !
 ! D80   D(7,8,9,22)           179.6626         calculate D2E/DX2 analytically  !
 ! D81   D(26,8,9,10)          171.1396         calculate D2E/DX2 analytically  !
 ! D82   D(26,8,9,22)           -8.9939         calculate D2E/DX2 analytically  !
 ! D83   D(7,8,26,12)            9.1986         calculate D2E/DX2 analytically  !
 ! D84   D(9,8,26,12)         -162.762          calculate D2E/DX2 analytically  !
 ! D85   D(8,9,10,11)           -1.0013         calculate D2E/DX2 analytically  !
 ! D86   D(8,9,10,23)          179.4412         calculate D2E/DX2 analytically  !
 ! D87   D(22,9,10,11)         179.1381         calculate D2E/DX2 analytically  !
 ! D88   D(22,9,10,23)          -0.4193         calculate D2E/DX2 analytically  !
 ! D89   D(9,10,11,6)            0.9017         calculate D2E/DX2 analytically  !
 ! D90   D(9,10,11,24)        -179.1582         calculate D2E/DX2 analytically  !
 ! D91   D(23,10,11,6)        -179.546          calculate D2E/DX2 analytically  !
 ! D92   D(23,10,11,24)          0.3942         calculate D2E/DX2 analytically  !
 ! D93   D(29,12,26,8)           8.3888         calculate D2E/DX2 analytically  !
 ! D94   D(36,12,26,8)         146.1989         calculate D2E/DX2 analytically  !
 ! D95   D(26,12,30,31)        174.5922         calculate D2E/DX2 analytically  !
 ! D96   D(26,12,30,32)         35.0673         calculate D2E/DX2 analytically  !
 ! D97   D(36,12,30,31)         41.9061         calculate D2E/DX2 analytically  !
 ! D98   D(36,12,30,32)        -97.6188         calculate D2E/DX2 analytically  !
 ! D99   D(27,13,30,29)        -74.5594         calculate D2E/DX2 analytically  !
 ! D100  D(27,13,30,31)        147.2562         calculate D2E/DX2 analytically  !
 ! D101  D(28,13,30,29)         67.6709         calculate D2E/DX2 analytically  !
 ! D102  D(28,13,30,31)        -70.5135         calculate D2E/DX2 analytically  !
 --------------------------------------------------------------------------------
 Trust Radius=4.00D-02 FncErr=1.00D-07 GrdErr=1.00D-06 EigMax=2.50D+02 EigMin=1.00D-04
 Number of steps in this run=    216 maximum allowed number of steps=    216.
 Search for a saddle point of order  1.
 GradGradGradGradGradGradGradGradGradGradGradGradGradGradGradGradGradGrad

                          Input orientation:                          
 ---------------------------------------------------------------------
 Center     Atomic      Atomic             Coordinates (Angstroms)
 Number     Number       Type             X           Y           Z
 ---------------------------------------------------------------------
      1          7           0       -1.857968   -0.105790    0.596858
      2          6           0       -1.355321   -1.006970   -0.471501
      3          6           0       -1.736737   -0.290497   -1.788573
      4          6           0       -2.772854    0.780624   -1.379659
      5          6           0       -3.126171    0.420847    0.060330
      6          6           0        0.109865   -1.322945   -0.289862
      7          6           0        1.069676   -0.322448   -0.424612
      8          7           0        2.375557   -0.506789   -0.223503
      9          6           0        2.802085   -1.734371    0.099076
     10          6           0        1.932003   -2.809932    0.233113
     11          6           0        0.567817   -2.596463    0.044914
     12          8           0        3.296292    1.956243   -0.291289
     13          8           0       -0.526628    2.047075    1.263726
     14          1           0       -3.464340    1.272726    0.661892
     15          1           0       -3.654263    0.786316   -2.028001
     16          1           0       -2.327562    1.782547   -1.416311
     17          1           0       -2.151619   -1.015815   -2.495982
     18          1           0       -0.862940    0.158424   -2.272476
     19          1           0       -3.904826   -0.360941    0.096814
     20          1           0       -1.918001   -1.954725   -0.404923
     21          1           0        0.771945    0.684835   -0.717260
     22          1           0        3.874409   -1.854310    0.251384
     23          1           0        2.318092   -3.794983    0.487726
     24          1           0       -0.137623   -3.420659    0.157779
     25          6           0       -2.015628   -0.785038    1.882726
     26          1           0        3.127613    0.956139   -0.264664
     27          1           0       -0.996242    1.170207    0.949300
     28          1           0       -0.435808    2.025330    2.219614
     29          1           0        2.153085    2.677792   -0.120956
     30          8           0        1.176564    3.136680   -0.086987
     31          1           0        1.200766    4.095780   -0.017986
     32          1           0        0.438652    2.675007    0.553899
     33          1           0       -2.425318   -0.083616    2.619706
     34          1           0       -1.040742   -1.140203    2.238645
     35          1           0       -2.700733   -1.645344    1.804478
     36          1           0        4.094088    2.156723    0.204533
 ---------------------------------------------------------------------
                    Distance matrix (angstroms):
                    1          2          3          4          5
     1  N    0.000000
     2  C    1.485318   0.000000
     3  C    2.395641   1.547091   0.000000
     4  C    2.351460   2.455533   1.545331   0.000000
     5  C    1.474296   2.336111   2.419706   1.525726   0.000000
     6  C    2.477924   1.509835   2.592686   3.731317   3.692611
     7  C    3.108286   2.520194   3.120475   4.110221   4.288681
     8  N    4.330881   3.772418   4.405359   5.431415   5.586598
     9  C    4.961467   4.258955   5.123368   6.292202   6.307986
    10  C    4.669965   3.814925   4.888192   6.134232   6.004408
    11  C    3.520302   2.547868   3.740337   4.959255   4.769690
    12  O    5.622026   5.518207   5.711487   6.277035   6.612799
    13  O    2.617634   3.609008   4.030526   3.692819   3.293995
    14  H    2.117774   3.305988   3.381280   2.210938   1.096327
    15  H    3.303394   3.305102   2.212184   1.094194   2.184851
    16  H    2.799854   3.101503   2.187502   1.097031   2.161590
    17  H    3.237288   2.175475   1.094825   2.204383   3.090062
    18  H    3.048437   2.200930   1.095086   2.198187   3.260838
    19  H    2.122445   2.690783   2.874066   2.182774   1.104005
    20  H    2.103742   1.104211   2.171865   3.027048   2.705453
    21  H    3.044411   2.729077   2.896976   3.607430   3.983672
    22  H    6.003068   5.347020   6.171863   7.334118   7.363488
    23  H    5.573287   4.710318   5.822765   7.095142   6.898977
    24  H    3.760417   2.775730   4.017881   5.192200   4.868068
    25  C    1.462768   2.455126   3.714941   3.697005   2.451243
    26  H    5.169713   4.898293   5.247695   6.007456   6.285060
    27  H    1.579543   2.624445   3.190288   2.955025   2.426604
    28  H    3.032746   4.157216   4.808434   4.468315   3.804593
    29  H    4.934788   5.099928   5.169371   5.426643   5.744320
    30  O    4.493288   4.871153   4.809185   4.777018   5.090283
    31  H    5.233266   5.725148   5.568063   5.351081   5.677469
    32  H    3.606819   4.222172   4.360471   4.200131   4.246506
    33  H    2.101022   3.398976   4.466527   4.106411   2.701126
    34  H    2.105548   2.731593   4.174314   4.447686   3.395725
    35  H    2.130452   2.719878   3.959156   4.003655   2.737187
    36  H    6.379644   6.337352   6.630225   7.180404   7.427395
                    6          7          8          9         10
     6  C    0.000000
     7  C    1.392978   0.000000
     8  N    2.409123   1.334073   0.000000
     9  C    2.751108   2.295434   1.339007   0.000000
    10  C    2.409319   2.713630   2.389499   1.389906   0.000000
    11  C    1.394146   2.375597   2.776096   2.395431   1.393553
    12  O    4.572351   3.188734   2.630375   3.743963   4.985249
    13  O    3.765076   3.318631   4.142071   5.170694   5.540537
    14  H    4.518660   4.927715   6.168873   6.973340   6.780300
    15  H    4.651749   5.110363   6.425501   7.250017   7.017977
    16  H    4.105365   4.117730   5.364996   6.401436   6.477295
    17  H    3.174209   3.892053   5.091030   5.638247   5.229033
    18  H    2.659241   2.716771   3.889558   4.758082   4.785480
    19  H    4.146410   5.001903   6.290237   6.846092   6.331248
    20  H    2.127117   3.404545   4.534763   4.752029   3.995122
    21  H    2.156896   1.090369   2.057993   3.261967   3.802938
    22  H    3.840194   3.266512   2.070722   1.089707   2.164830
    23  H    3.404685   3.801237   3.364724   2.152073   1.088218
    24  H    2.159175   3.375746   3.866793   3.389527   2.159170
    25  C    3.086617   3.880322   4.878128   5.224270   4.733414
    26  H    3.781754   2.428059   1.645430   2.734432   3.982531
    27  H    2.995797   2.895457   3.944212   4.856618   4.992900
    28  H    4.219736   3.843238   4.503801   5.395923   5.738682
    29  H    4.495461   3.204282   3.193989   4.465064   5.503577
    30  O    4.589909   3.477209   3.838110   5.138490   6.002945
    31  H    5.534127   4.438836   4.754578   6.047197   6.948857
    32  H    4.099226   3.215651   3.805231   5.023474   5.693642
    33  H    4.053230   4.641109   5.595651   6.033598   5.666998
    34  H    2.783997   3.495072   4.258460   4.438255   3.955675
    35  H    3.519895   4.575465   5.583703   5.761712   5.028687
    36  H    5.312866   3.960957   3.198572   4.101342   5.416926
                   11         12         13         14         15
    11  C    0.000000
    12  O    5.318340   0.000000
    13  O    4.923998   4.128079   0.000000
    14  H    5.622239   6.861625   3.097091   0.000000
    15  H    5.793628   7.259140   4.712439   2.740108   0.000000
    16  H    5.449232   5.737907   3.239743   2.423037   1.768269
    17  H    4.043505   6.585859   5.114420   4.114951   2.392618
    18  H    3.873857   4.945348   4.023038   4.076698   2.871498
    19  H    5.000479   7.574699   4.309576   1.783875   2.427719
    20  H    2.606429   6.519006   4.553538   3.734394   3.627988
    21  H    3.374832   2.858366   2.732452   4.493750   4.617321
    22  H    3.395139   3.892175   5.967811   7.987747   8.297554
    23  H    2.167025   5.885604   6.544024   7.690808   7.936385
    24  H    1.090726   6.395663   5.592008   5.774863   5.902798
    25  C    3.651438   6.360618   3.259010   2.797069   4.521954
    26  H    4.389690   1.014578   4.108478   6.664276   7.009425
    27  H    4.177559   4.536823   1.043215   2.486890   4.009585
    28  H    5.205531   4.498664   0.960439   3.487824   5.471366
    29  H    5.509841   1.362560   3.081560   5.843161   6.398421
    30  O    5.766880   2.434834   2.431569   5.056989   5.712148
    31  H    6.722403   3.007248   2.970500   5.495005   6.209993
    32  H    5.297560   3.065464   1.352745   4.148663   5.194739
    33  H    4.680044   6.735855   3.159676   2.598512   4.885516
    34  H    3.085549   5.899018   3.372465   3.765927   5.361552
    35  H    3.831985   7.302601   4.318924   3.225482   4.637897
    36  H    5.920544   0.960474   4.741828   7.623678   8.179191
                   16         17         18         19         20
    16  H    0.000000
    17  H    3.004576   0.000000
    18  H    2.348598   1.757693   0.000000
    19  H    3.061348   3.197684   3.890546   0.000000
    20  H    3.893308   2.304052   3.011031   2.596028   0.000000
    21  H    3.361635   3.821425   2.317036   4.860921   3.781619
    22  H    7.380541   6.675635   5.732665   7.922786   5.830338
    23  H    7.504419   6.050174   5.776427   7.118298   4.704025
    24  H    5.860627   4.108759   4.386577   4.853598   2.373887
    25  C    4.192069   4.386894   4.414127   2.634086   2.571194
    26  H    5.636326   6.061161   4.537860   7.163837   5.826751
    27  H    2.782712   4.240702   3.379544   3.395734   3.528280
    28  H    4.105804   5.867658   4.883303   4.715364   4.992587
    29  H    4.749274   6.149305   4.480252   6.780826   6.173702
    30  O    3.984931   5.841513   4.219709   6.171520   5.966559
    31  H    4.444711   6.596010   4.984414   6.778098   6.817994
    32  H    3.511432   5.443661   4.001965   5.318995   5.282762
    33  H    4.447646   5.207127   5.141309   2.937829   3.592604
    34  H    4.853563   4.864793   4.697686   3.660282   2.901979
    35  H    4.718387   4.380843   4.822097   2.452682   2.364284
    36  H    6.633606   7.507772   5.890747   8.386469   7.308944
                   21         22         23         24         25
    21  H    0.000000
    22  H    4.124416   0.000000
    23  H    4.889921   2.498838   0.000000
    24  H    4.295124   4.307971   2.505897   0.000000
    25  C    4.085464   6.204608   5.457740   3.667266   0.000000
    26  H    2.414047   2.953410   4.877968   5.476914   5.839170
    27  H    2.477800   5.775641   5.987568   4.737065   2.394455
    28  H    3.446857   6.124011   6.667792   5.830855   3.241526
    29  H    2.496999   4.862257   6.503425   6.520440   5.777898
    30  O    2.563690   5.683559   7.048499   6.692211   5.426761
    31  H    3.508193   6.528744   7.985506   7.636690   6.146567
    32  H    2.384893   5.693036   6.737763   6.135646   4.445355
    33  H    4.684907   6.959229   6.389016   4.736084   1.096804
    34  H    3.918415   5.349567   4.625510   3.216536   1.096915
    35  H    4.883481   6.759309   5.616350   3.526031   1.102551
    36  H    3.748705   4.017317   6.217489   7.001197   6.985622
                   26         27         28         29         30
    26  H    0.000000
    27  H    4.304151   0.000000
    28  H    4.473564   1.630650   0.000000
    29  H    1.983544   3.651920   3.550541   0.000000
    30  O    2.931368   3.108375   3.025764   1.079502   0.000000
    31  H    3.692010   3.784371   3.460057   1.711200   0.961883
    32  H    3.294702   2.116527   1.990318   1.842476   1.080921
    33  H    6.343164   2.530728   2.926752   6.008192   5.538054
    34  H    5.294940   2.646202   3.222872   5.508660   5.349461
    35  H    6.709596   3.400580   4.333136   6.779111   6.440406
    36  H    1.611093   5.238258   4.959614   2.035915   3.091480
                   31         32         33         34         35
    31  H    0.000000
    32  H    1.710692   0.000000
    33  H    6.129703   4.481058   0.000000
    34  H    6.126358   4.425246   1.782872   0.000000
    35  H    7.176599   5.484990   1.783100   1.788642   0.000000
    36  H    3.490096   3.708489   7.304439   6.432248   7.948907
                   36
    36  H    0.000000
 Stoichiometry    C10H21N2O3(1+)
 Framework group  C1[X(C10H21N2O3)]
 Deg. of freedom   102
 Full point group                 C1      NOp   1
 Largest Abelian subgroup         C1      NOp   1
 Largest concise Abelian subgroup C1      NOp   1
                         Standard orientation:                         
 ---------------------------------------------------------------------
 Center     Atomic      Atomic             Coordinates (Angstroms)
 Number     Number       Type             X           Y           Z
 ---------------------------------------------------------------------
      1          7           0       -1.857968   -0.105790    0.596858
      2          6           0       -1.355321   -1.006970   -0.471501
      3          6           0       -1.736737   -0.290497   -1.788573
      4          6           0       -2.772854    0.780624   -1.379659
      5          6           0       -3.126171    0.420846    0.060330
      6          6           0        0.109865   -1.322945   -0.289862
      7          6           0        1.069676   -0.322448   -0.424612
      8          7           0        2.375557   -0.506789   -0.223503
      9          6           0        2.802085   -1.734371    0.099076
     10          6           0        1.932004   -2.809932    0.233113
     11          6           0        0.567818   -2.596463    0.044914
     12          8           0        3.296292    1.956244   -0.291289
     13          8           0       -0.526628    2.047075    1.263726
     14          1           0       -3.464340    1.272725    0.661892
     15          1           0       -3.654263    0.786315   -2.028001
     16          1           0       -2.327562    1.782547   -1.416311
     17          1           0       -2.151619   -1.015815   -2.495982
     18          1           0       -0.862940    0.158424   -2.272476
     19          1           0       -3.904826   -0.360942    0.096814
     20          1           0       -1.918001   -1.954725   -0.404923
     21          1           0        0.771945    0.684835   -0.717260
     22          1           0        3.874409   -1.854309    0.251384
     23          1           0        2.318093   -3.794983    0.487726
     24          1           0       -0.137622   -3.420659    0.157779
     25          6           0       -2.015628   -0.785038    1.882726
     26          1           0        3.127613    0.956140   -0.264664
     27          1           0       -0.996242    1.170207    0.949300
     28          1           0       -0.435808    2.025330    2.219614
     29          1           0        2.153085    2.677792   -0.120956
     30          8           0        1.176564    3.136680   -0.086987
     31          1           0        1.200765    4.095780   -0.017986
     32          1           0        0.438652    2.675007    0.553899
     33          1           0       -2.425318   -0.083616    2.619706
     34          1           0       -1.040742   -1.140203    2.238645
     35          1           0       -2.700733   -1.645344    1.804478
     36          1           0        4.094088    2.156724    0.204533
 ---------------------------------------------------------------------
 Rotational constants (GHZ):           0.6132687           0.4552798           0.3226045
 Standard basis: Aug-CC-pVDZ (5D, 7F)
 There are   564 symmetry adapted cartesian basis functions of A   symmetry.
 There are   534 symmetry adapted basis functions of A   symmetry.
   534 basis functions,   876 primitive gaussians,   564 cartesian basis functions
    59 alpha electrons       59 beta electrons
       nuclear repulsion energy      1117.6631083192 Hartrees.
 NAtoms=   36 NActive=   36 NUniq=   36 SFac= 1.00D+00 NAtFMM=   60 NAOKFM=F Big=F
 Integral buffers will be    131072 words long.
 Raffenetti 2 integral format.
 Two-electron integral symmetry is turned on.
 Nuclear repulsion after empirical dispersion term =     1117.6338862337 Hartrees.
 One-electron integrals computed using PRISM.
 NBasis=   534 RedAO= T EigKep=  1.95D-06  NBF=   534
 NBsUse=   534 1.00D-06 EigRej= -1.00D+00 NBFU=   534
 ExpMin= 2.97D-02 ExpMax= 1.17D+04 ExpMxC= 4.01D+02 IAcc=3 IRadAn=         5 AccDes= 0.00D+00
 Harris functional with IExCor= 4639 and IRadAn=       5 diagonalized for initial guess.
 HarFok:  IExCor= 4639 AccDes= 0.00D+00 IRadAn=         5 IDoV= 1 UseB2=F ITyADJ=14
 ICtDFT=  3500011 ScaDFX=  1.000000  1.000000  1.000000  1.000000
 FoFCou: FMM=F IPFlag=           0 FMFlag=      100000 FMFlg1=           0
         NFxFlg=           0 DoJE=T BraDBF=F KetDBF=T FulRan=T
         wScrn=  0.000000 ICntrl=       500 IOpCl=  0 I1Cent=   200000004 NGrid=           0
         NMat0=    1 NMatS0=      1 NMatT0=    0 NMatD0=    1 NMtDS0=    0 NMtDT0=    0
 Petite list used in FoFCou.
 Requested convergence on RMS density matrix=1.00D-08 within 128 cycles.
 Requested convergence on MAX density matrix=1.00D-06.
 Requested convergence on             energy=1.00D-06.
 No special actions if energy rises.
 SCF Done:  E(RwB97XD) =  -728.575740827     A.U. after   15 cycles
            NFock= 15  Conv=0.35D-08     -V/T= 2.0062
 DoSCS=F DFT=T ScalE2(SS,OS)=  1.000000  1.000000
 Range of M.O.s used for correlation:     1   534
 NBasis=   534 NAE=    59 NBE=    59 NFC=     0 NFV=     0
 NROrb=    534 NOA=    59 NOB=    59 NVA=   475 NVB=   475

 **** Warning!!: The largest alpha MO coefficient is  0.11866986D+03

 Symmetrizing basis deriv contribution to polar:
 IMax=3 JMax=2 DiffMx= 0.00D+00
 G2DrvN: will do    37 centers at a time, making    1 passes.
 Calling FoFCou, ICntrl=  3107 FMM=F I1Cent=   0 AccDes= 0.00D+00.
 End of G2Drv F.D. properties file   721 does not exist.
 End of G2Drv F.D. properties file   722 does not exist.
 End of G2Drv F.D. properties file   788 does not exist.
          IDoAtm=111111111111111111111111111111111111
          Differentiating once with respect to electric field.
                with respect to dipole field.
          Differentiating once with respect to nuclear coordinates.
 CalDSu exits because no D1Ps are significant.
          There are   111 degrees of freedom in the 1st order CPHF.  IDoFFX=6 NUNeed=     3.
    108 vectors produced by pass  0 Test12= 2.80D-14 1.00D-09 XBig12= 7.43D+01 2.73D+00.
 AX will form   108 AO Fock derivatives at one time.
    108 vectors produced by pass  1 Test12= 2.80D-14 1.00D-09 XBig12= 9.25D+00 7.46D-01.
    108 vectors produced by pass  2 Test12= 2.80D-14 1.00D-09 XBig12= 2.19D-01 5.94D-02.
    108 vectors produced by pass  3 Test12= 2.80D-14 1.00D-09 XBig12= 1.96D-03 5.15D-03.
    108 vectors produced by pass  4 Test12= 2.80D-14 1.00D-09 XBig12= 1.74D-05 3.54D-04.
    108 vectors produced by pass  5 Test12= 2.80D-14 1.00D-09 XBig12= 1.20D-07 2.55D-05.
    107 vectors produced by pass  6 Test12= 2.80D-14 1.00D-09 XBig12= 7.05D-10 2.18D-06.
     40 vectors produced by pass  7 Test12= 2.80D-14 1.00D-09 XBig12= 3.53D-12 1.84D-07.
      3 vectors produced by pass  8 Test12= 2.80D-14 1.00D-09 XBig12= 2.18D-14 8.80D-09.
      3 vectors produced by pass  9 Test12= 2.80D-14 1.00D-09 XBig12= 2.65D-15 4.33D-09.
 InvSVY:  IOpt=1 It=  1 EMax= 1.24D-14
 Solved reduced A of dimension   801 with   111 vectors.
 Isotropic polarizability for W=    0.000000      153.07 Bohr**3.
 End of Minotr F.D. properties file   721 does not exist.
 End of Minotr F.D. properties file   722 does not exist.
 End of Minotr F.D. properties file   788 does not exist.

 **********************************************************************

            Population analysis using the SCF density.

 **********************************************************************

 Orbital symmetries:
       Occupied  (A) (A) (A) (A) (A) (A) (A) (A) (A) (A) (A) (A)
                 (A) (A) (A) (A) (A) (A) (A) (A) (A) (A) (A) (A)
                 (A) (A) (A) (A) (A) (A) (A) (A) (A) (A) (A) (A)
                 (A) (A) (A) (A) (A) (A) (A) (A) (A) (A) (A) (A)
                 (A) (A) (A) (A) (A) (A) (A) (A) (A) (A) (A)
       Virtual   (A) (A) (A) (A) (A) (A) (A) (A) (A) (A) (A) (A)
                 (A) (A) (A) (A) (A) (A) (A) (A) (A) (A) (A) (A)
                 (A) (A) (A) (A) (A) (A) (A) (A) (A) (A) (A) (A)
                 (A) (A) (A) (A) (A) (A) (A) (A) (A) (A) (A) (A)
                 (A) (A) (A) (A) (A) (A) (A) (A) (A) (A) (A) (A)
                 (A) (A) (A) (A) (A) (A) (A) (A) (A) (A) (A) (A)
                 (A) (A) (A) (A) (A) (A) (A) (A) (A) (A) (A) (A)
                 (A) (A) (A) (A) (A) (A) (A) (A) (A) (A) (A) (A)
                 (A) (A) (A) (A) (A) (A) (A) (A) (A) (A) (A) (A)
                 (A) (A) (A) (A) (A) (A) (A) (A) (A) (A) (A) (A)
                 (A) (A) (A) (A) (A) (A) (A) (A) (A) (A) (A) (A)
                 (A) (A) (A) (A) (A) (A) (A) (A) (A) (A) (A) (A)
                 (A) (A) (A) (A) (A) (A) (A) (A) (A) (A) (A) (A)
                 (A) (A) (A) (A) (A) (A) (A) (A) (A) (A) (A) (A)
                 (A) (A) (A) (A) (A) (A) (A) (A) (A) (A) (A) (A)
                 (A) (A) (A) (A) (A) (A) (A) (A) (A) (A) (A) (A)
                 (A) (A) (A) (A) (A) (A) (A) (A) (A) (A) (A) (A)
                 (A) (A) (A) (A) (A) (A) (A) (A) (A) (A) (A) (A)
                 (A) (A) (A) (A) (A) (A) (A) (A) (A) (A) (A) (A)
                 (A) (A) (A) (A) (A) (A) (A) (A) (A) (A) (A) (A)
                 (A) (A) (A) (A) (A) (A) (A) (A) (A) (A) (A) (A)
                 (A) (A) (A) (A) (A) (A) (A) (A) (A) (A) (A) (A)
                 (A) (A) (A) (A) (A) (A) (A) (A) (A) (A) (A) (A)
                 (A) (A) (A) (A) (A) (A) (A) (A) (A) (A) (A) (A)
                 (A) (A) (A) (A) (A) (A) (A) (A) (A) (A) (A) (A)
                 (A) (A) (A) (A) (A) (A) (A) (A) (A) (A) (A) (A)
                 (A) (A) (A) (A) (A) (A) (A) (A) (A) (A) (A) (A)
                 (A) (A) (A) (A) (A) (A) (A) (A) (A) (A) (A) (A)
                 (A) (A) (A) (A) (A) (A) (A) (A) (A) (A) (A) (A)
                 (A) (A) (A) (A) (A) (A) (A) (A) (A) (A) (A) (A)
                 (A) (A) (A) (A) (A) (A) (A) (A) (A) (A) (A) (A)
                 (A) (A) (A) (A) (A) (A) (A) (A) (A) (A) (A) (A)
                 (A) (A) (A) (A) (A) (A) (A) (A) (A) (A) (A) (A)
                 (A) (A) (A) (A) (A) (A) (A) (A) (A) (A) (A) (A)
                 (A) (A) (A) (A) (A) (A) (A) (A) (A) (A) (A) (A)
                 (A) (A) (A) (A) (A) (A) (A) (A) (A) (A) (A) (A)
                 (A) (A) (A) (A) (A) (A) (A) (A) (A) (A) (A) (A)
                 (A) (A) (A) (A) (A) (A) (A) (A) (A) (A) (A) (A)
                 (A) (A) (A) (A) (A) (A) (A) (A) (A) (A) (A) (A)
                 (A) (A) (A) (A) (A) (A) (A)
 The electronic state is 1-A.
 Alpha  occ. eigenvalues --  -19.46576 -19.41919 -19.41874 -14.59597 -14.59588
 Alpha  occ. eigenvalues --  -10.46903 -10.46606 -10.46175 -10.44718 -10.44489
 Alpha  occ. eigenvalues --  -10.44271 -10.44064 -10.43592 -10.41446 -10.40992
 Alpha  occ. eigenvalues --   -1.32262  -1.26388  -1.25640  -1.19134  -1.17966
 Alpha  occ. eigenvalues --   -1.04919  -1.01552  -1.00399  -0.94655  -0.90154
 Alpha  occ. eigenvalues --   -0.86558  -0.85519  -0.82759  -0.82302  -0.80769
 Alpha  occ. eigenvalues --   -0.80064  -0.78109  -0.76431  -0.73896  -0.71840
 Alpha  occ. eigenvalues --   -0.70665  -0.69541  -0.66837  -0.66358  -0.66084
 Alpha  occ. eigenvalues --   -0.64670  -0.62950  -0.62598  -0.62486  -0.61247
 Alpha  occ. eigenvalues --   -0.60824  -0.60408  -0.59289  -0.57415  -0.56337
 Alpha  occ. eigenvalues --   -0.56071  -0.55864  -0.55042  -0.54343  -0.52616
 Alpha  occ. eigenvalues --   -0.49840  -0.49419  -0.46646  -0.46224
 Alpha virt. eigenvalues --   -0.09737  -0.08402  -0.07785  -0.05542  -0.05160
 Alpha virt. eigenvalues --   -0.04655  -0.03586  -0.03448  -0.02901  -0.02477
 Alpha virt. eigenvalues --   -0.01980  -0.01549  -0.01229  -0.00622  -0.00557
 Alpha virt. eigenvalues --   -0.00132   0.00480   0.00964   0.01379   0.01506
 Alpha virt. eigenvalues --    0.01771   0.02195   0.02455   0.02691   0.03926
 Alpha virt. eigenvalues --    0.04098   0.04240   0.04519   0.05120   0.05279
 Alpha virt. eigenvalues --    0.05399   0.05866   0.05999   0.06193   0.06437
 Alpha virt. eigenvalues --    0.06627   0.06727   0.07053   0.07288   0.07625
 Alpha virt. eigenvalues --    0.07886   0.08082   0.08358   0.08691   0.08855
 Alpha virt. eigenvalues --    0.08994   0.09577   0.09806   0.10527   0.10738
 Alpha virt. eigenvalues --    0.11348   0.11401   0.11523   0.11668   0.12225
 Alpha virt. eigenvalues --    0.12820   0.12904   0.13473   0.13555   0.13839
 Alpha virt. eigenvalues --    0.14614   0.14739   0.14794   0.15472   0.15527
 Alpha virt. eigenvalues --    0.16042   0.16364   0.16588   0.16710   0.17205
 Alpha virt. eigenvalues --    0.17438   0.17737   0.18200   0.18781   0.18976
 Alpha virt. eigenvalues --    0.19108   0.19683   0.19813   0.20151   0.20345
 Alpha virt. eigenvalues --    0.20777   0.21188   0.21541   0.21558   0.22239
 Alpha virt. eigenvalues --    0.22343   0.22573   0.22894   0.23283   0.24451
 Alpha virt. eigenvalues --    0.24663   0.24923   0.25382   0.25468   0.25859
 Alpha virt. eigenvalues --    0.26161   0.26693   0.26785   0.27313   0.27567
 Alpha virt. eigenvalues --    0.28405   0.28536   0.28913   0.29333   0.29583
 Alpha virt. eigenvalues --    0.30010   0.30139   0.30563   0.30907   0.31530
 Alpha virt. eigenvalues --    0.32375   0.32479   0.32703   0.33037   0.33327
 Alpha virt. eigenvalues --    0.33772   0.33995   0.34365   0.34685   0.35616
 Alpha virt. eigenvalues --    0.36055   0.36220   0.36802   0.37459   0.37686
 Alpha virt. eigenvalues --    0.38367   0.38780   0.39109   0.39427   0.39949
 Alpha virt. eigenvalues --    0.40351   0.40752   0.41689   0.41849   0.42069
 Alpha virt. eigenvalues --    0.42740   0.42995   0.43203   0.43859   0.44503
 Alpha virt. eigenvalues --    0.44860   0.44907   0.45936   0.46310   0.46552
 Alpha virt. eigenvalues --    0.47021   0.47371   0.47759   0.48670   0.48858
 Alpha virt. eigenvalues --    0.49257   0.49538   0.50125   0.50434   0.50692
 Alpha virt. eigenvalues --    0.51073   0.52006   0.52239   0.52327   0.52646
 Alpha virt. eigenvalues --    0.52982   0.53472   0.54132   0.54297   0.54859
 Alpha virt. eigenvalues --    0.55167   0.55583   0.55800   0.56565   0.56830
 Alpha virt. eigenvalues --    0.57202   0.57858   0.58262   0.58637   0.58897
 Alpha virt. eigenvalues --    0.59591   0.60148   0.60588   0.60801   0.61360
 Alpha virt. eigenvalues --    0.61512   0.61776   0.62114   0.63219   0.63351
 Alpha virt. eigenvalues --    0.63879   0.64319   0.65003   0.65074   0.65222
 Alpha virt. eigenvalues --    0.65568   0.66420   0.67457   0.67602   0.68445
 Alpha virt. eigenvalues --    0.68778   0.69079   0.69490   0.69813   0.70536
 Alpha virt. eigenvalues --    0.70899   0.71499   0.71786   0.72530   0.72612
 Alpha virt. eigenvalues --    0.73479   0.73621   0.74307   0.74436   0.74737
 Alpha virt. eigenvalues --    0.75723   0.76145   0.76635   0.76756   0.77672
 Alpha virt. eigenvalues --    0.78374   0.78840   0.79851   0.80671   0.81078
 Alpha virt. eigenvalues --    0.81529   0.82114   0.82601   0.83370   0.83446
 Alpha virt. eigenvalues --    0.84904   0.86085   0.86102   0.86865   0.87764
 Alpha virt. eigenvalues --    0.88430   0.88746   0.89584   0.90170   0.91103
 Alpha virt. eigenvalues --    0.91746   0.91926   0.92399   0.93000   0.94299
 Alpha virt. eigenvalues --    0.94856   0.96738   0.97912   0.98073   0.98540
 Alpha virt. eigenvalues --    0.99162   0.99660   1.00841   1.01855   1.02537
 Alpha virt. eigenvalues --    1.03635   1.03992   1.04532   1.05253   1.05534
 Alpha virt. eigenvalues --    1.06915   1.07940   1.08334   1.09467   1.10451
 Alpha virt. eigenvalues --    1.11226   1.12581   1.12995   1.13793   1.15389
 Alpha virt. eigenvalues --    1.15596   1.17080   1.18271   1.19091   1.19281
 Alpha virt. eigenvalues --    1.19472   1.20386   1.21586   1.23138   1.23337
 Alpha virt. eigenvalues --    1.24605   1.24882   1.26179   1.26897   1.28560
 Alpha virt. eigenvalues --    1.29060   1.30549   1.31279   1.33104   1.34811
 Alpha virt. eigenvalues --    1.35179   1.36297   1.36972   1.37995   1.38179
 Alpha virt. eigenvalues --    1.39896   1.40401   1.41066   1.42428   1.42720
 Alpha virt. eigenvalues --    1.43532   1.45002   1.46049   1.46453   1.46985
 Alpha virt. eigenvalues --    1.48504   1.49129   1.49754   1.50602   1.51730
 Alpha virt. eigenvalues --    1.52773   1.53842   1.55380   1.56498   1.57464
 Alpha virt. eigenvalues --    1.58550   1.59465   1.59705   1.61181   1.61553
 Alpha virt. eigenvalues --    1.62924   1.63095   1.63570   1.64883   1.65982
 Alpha virt. eigenvalues --    1.67125   1.67600   1.68474   1.68728   1.69673
 Alpha virt. eigenvalues --    1.70244   1.71406   1.72270   1.73096   1.74151
 Alpha virt. eigenvalues --    1.74629   1.75668   1.76617   1.77530   1.78605
 Alpha virt. eigenvalues --    1.78699   1.79199   1.80573   1.81096   1.81533
 Alpha virt. eigenvalues --    1.83123   1.83551   1.84117   1.84789   1.85264
 Alpha virt. eigenvalues --    1.86183   1.86890   1.88218   1.88590   1.89223
 Alpha virt. eigenvalues --    1.90382   1.90701   1.91652   1.92248   1.94201
 Alpha virt. eigenvalues --    1.94845   1.95851   1.96722   1.97259   1.98300
 Alpha virt. eigenvalues --    1.99234   2.00208   2.00667   2.02938   2.03135
 Alpha virt. eigenvalues --    2.04113   2.05662   2.05821   2.06921   2.08665
 Alpha virt. eigenvalues --    2.09377   2.10472   2.10965   2.12453   2.13274
 Alpha virt. eigenvalues --    2.13455   2.14737   2.15534   2.16455   2.18605
 Alpha virt. eigenvalues --    2.19340   2.20179   2.21092   2.21696   2.22507
 Alpha virt. eigenvalues --    2.23460   2.24096   2.25392   2.26655   2.27215
 Alpha virt. eigenvalues --    2.28542   2.29701   2.30190   2.32402   2.32568
 Alpha virt. eigenvalues --    2.33565   2.35656   2.36324   2.38627   2.39435
 Alpha virt. eigenvalues --    2.40442   2.41111   2.42402   2.43910   2.45230
 Alpha virt. eigenvalues --    2.46178   2.46664   2.47998   2.49485   2.50389
 Alpha virt. eigenvalues --    2.51929   2.53174   2.53377   2.55290   2.55880
 Alpha virt. eigenvalues --    2.57222   2.58815   2.59410   2.60224   2.61486
 Alpha virt. eigenvalues --    2.64062   2.65139   2.66539   2.67425   2.68954
 Alpha virt. eigenvalues --    2.70720   2.71224   2.72720   2.73968   2.75731
 Alpha virt. eigenvalues --    2.75998   2.76589   2.79896   2.81850   2.83321
 Alpha virt. eigenvalues --    2.84163   2.85090   2.86859   2.87449   2.89785
 Alpha virt. eigenvalues --    2.90348   2.90580   2.90867   2.94572   2.96548
 Alpha virt. eigenvalues --    2.97604   2.99523   3.01873   3.06241   3.10932
 Alpha virt. eigenvalues --    3.15093   3.16819   3.23739   3.29068   3.30773
 Alpha virt. eigenvalues --    3.32061   3.33763   3.36647   3.37365   3.40539
 Alpha virt. eigenvalues --    3.43159   3.46814   3.50167   3.53915   3.59948
 Alpha virt. eigenvalues --    3.65579   3.80711   3.81218   3.87977   3.98283
 Alpha virt. eigenvalues --    4.07629   4.11766   4.16117   4.32747   4.92407
          Condensed to atoms (all electrons):
               1          2          3          4          5          6
     1  N   16.293599  -5.913060  -0.733125  -0.603268  -0.274253   1.872330
     2  C   -5.913060  23.386779  -2.253326   0.187126  -0.450351  -6.679927
     3  C   -0.733125  -2.253326   8.865514  -0.687171   0.599363   0.498560
     4  C   -0.603268   0.187126  -0.687171   6.170018   0.189734   0.192370
     5  C   -0.274253  -0.450351   0.599363   0.189734   5.918218  -0.245936
     6  C    1.872330  -6.679927   0.498560   0.192370  -0.245936  21.615273
     7  C   -0.131130  -0.965406  -0.698474  -0.006411  -0.266854  -3.811444
     8  N   -0.059249   0.545014   0.063134  -0.019517   0.057994  -0.175619
     9  C    0.057713  -0.615454  -0.075269   0.003851  -0.057364  -1.201460
    10  C    0.075201   0.186740  -0.140136  -0.012550   0.018701   0.618144
    11  C   -0.551708  -1.167107  -0.080698  -0.090183  -0.002075  -8.576454
    12  O   -0.000608   0.001235  -0.004462  -0.001402   0.000087  -0.060162
    13  O   -0.269777   0.138658   0.066515  -0.006076   0.026281  -0.029787
    14  H   -1.003515   0.598713   0.131871   0.026721  -0.249363  -0.174196
    15  H   -0.099275   0.212065   0.157835  -0.339688   0.113454  -0.052781
    16  H    0.102384  -0.043413   0.241076  -0.286295  -0.128685   0.031702
    17  H    0.440062   0.061973  -0.920350   0.055116  -0.213501   0.362135
    18  H   -0.010385   0.253654  -0.357511   0.359011   0.084451  -0.346711
    19  H   -0.290403   0.174361  -0.105812   0.084203  -0.224810   0.095258
    20  H   -0.117635  -2.505270   0.620438   0.041708  -0.062049   0.863100
    21  H   -0.321488   0.093207  -0.150254  -0.052934   0.033555  -1.018528
    22  H    0.009214  -0.022756   0.001714   0.000061  -0.001306  -0.078214
    23  H   -0.006577   0.039614   0.006433   0.001128  -0.000878   0.013393
    24  H    0.029098   0.098151  -0.073181  -0.011077   0.011240   1.029231
    25  C    1.224911  -0.902101  -0.247801   0.019064  -0.163489   0.435506
    26  H   -0.005037   0.012999  -0.010080   0.000293  -0.003322  -0.001133
    27  H   -0.417403   0.479193   0.122839  -0.064228  -0.152388  -0.181687
    28  H    0.034752  -0.037694  -0.012398   0.010884   0.001003   0.017478
    29  H    0.002810   0.015042   0.005640   0.002960  -0.001648   0.009343
    30  O   -0.014061  -0.007024   0.007781  -0.010606   0.001721  -0.038825
    31  H   -0.000493  -0.003703  -0.000272   0.000521   0.000077  -0.002605
    32  H    0.018797  -0.014349   0.012343  -0.006677   0.005172   0.030638
    33  H   -0.436998   0.148581  -0.077327   0.066374   0.009030  -0.009955
    34  H    0.238345   0.052932   0.097811  -0.049622  -0.044493   0.057344
    35  H   -0.713350  -0.018159  -0.015601   0.026334   0.097529   0.045532
    36  H    0.000873  -0.004333  -0.000153   0.000021   0.000112   0.008638
               7          8          9         10         11         12
     1  N   -0.131130  -0.059249   0.057713   0.075201  -0.551708  -0.000608
     2  C   -0.965406   0.545014  -0.615454   0.186740  -1.167107   0.001235
     3  C   -0.698474   0.063134  -0.075269  -0.140136  -0.080698  -0.004462
     4  C   -0.006411  -0.019517   0.003851  -0.012550  -0.090183  -0.001402
     5  C   -0.266854   0.057994  -0.057364   0.018701  -0.002075   0.000087
     6  C   -3.811444  -0.175619  -1.201460   0.618144  -8.576454  -0.060162
     7  C   16.125736  -0.708760  -1.185592  -0.134363  -1.810688  -0.150796
     8  N   -0.708760   8.016423   0.259855   0.102668  -0.304928  -0.005338
     9  C   -1.185592   0.259855   9.978832  -2.527265   1.294783   0.057145
    10  C   -0.134363   0.102668  -2.527265  11.542054  -3.847842  -0.027983
    11  C   -1.810688  -0.304928   1.294783  -3.847842  21.724470   0.027431
    12  O   -0.150796  -0.005338   0.057145  -0.027983   0.027431   8.012012
    13  O   -0.175821   0.041048   0.017547  -0.020185  -0.022269   0.003684
    14  H   -0.016376   0.002310  -0.004571   0.001113   0.017745   0.000194
    15  H    0.022374  -0.001166   0.000712   0.001212   0.013273  -0.000128
    16  H   -0.008239  -0.002654  -0.001986  -0.001573  -0.009655  -0.000177
    17  H    0.175351  -0.019887  -0.001471   0.001570  -0.014248   0.000367
    18  H   -0.187760   0.045167   0.008871  -0.037189   0.052651  -0.004113
    19  H    0.002417   0.001227   0.000065  -0.003981   0.012750   0.000008
    20  H   -0.179299   0.001413   0.034360  -0.012182  -0.029435  -0.000346
    21  H   -1.099750  -0.047474  -0.106241   0.133854  -0.154410   0.112322
    22  H    0.172572  -0.157903  -0.496709   0.119310   0.180408  -0.002306
    23  H   -0.058028  -0.046998   0.405090  -1.192463   0.550125  -0.000025
    24  H    0.024193  -0.029413  -0.212810   0.659322  -2.354702   0.000335
    25  C   -0.036686  -0.031185  -0.030432   0.108835  -0.132696  -0.001393
    26  H   -0.095625   0.149585   0.097808  -0.072358   0.013283   0.259423
    27  H   -0.011233  -0.008956   0.041313  -0.047446  -0.000657  -0.003146
    28  H    0.005774   0.003564  -0.002402   0.003073  -0.005315   0.003547
    29  H    0.059400  -0.017364  -0.007558   0.000511  -0.002669  -0.005418
    30  O   -0.039773  -0.008562  -0.005767   0.003820  -0.000914  -0.048258
    31  H    0.018058  -0.001723  -0.000333   0.000187  -0.000706   0.002137
    32  H    0.033696   0.002911  -0.001093   0.004162   0.007438  -0.032818
    33  H   -0.024582  -0.002927  -0.006784   0.022403  -0.042913  -0.000427
    34  H   -0.016119   0.006385   0.005617  -0.020880   0.022094  -0.000174
    35  H    0.028567  -0.002128   0.005624  -0.016261   0.088517   0.000003
    36  H    0.010204  -0.008203  -0.010738   0.008515  -0.006299   0.354896
              13         14         15         16         17         18
     1  N   -0.269777  -1.003515  -0.099275   0.102384   0.440062  -0.010385
     2  C    0.138658   0.598713   0.212065  -0.043413   0.061973   0.253654
     3  C    0.066515   0.131871   0.157835   0.241076  -0.920350  -0.357511
     4  C   -0.006076   0.026721  -0.339688  -0.286295   0.055116   0.359011
     5  C    0.026281  -0.249363   0.113454  -0.128685  -0.213501   0.084451
     6  C   -0.029787  -0.174196  -0.052781   0.031702   0.362135  -0.346711
     7  C   -0.175821  -0.016376   0.022374  -0.008239   0.175351  -0.187760
     8  N    0.041048   0.002310  -0.001166  -0.002654  -0.019887   0.045167
     9  C    0.017547  -0.004571   0.000712  -0.001986  -0.001471   0.008871
    10  C   -0.020185   0.001113   0.001212  -0.001573   0.001570  -0.037189
    11  C   -0.022269   0.017745   0.013273  -0.009655  -0.014248   0.052651
    12  O    0.003684   0.000194  -0.000128  -0.000177   0.000367  -0.004113
    13  O    8.366345   0.027552  -0.010155   0.031705   0.002174  -0.001797
    14  H    0.027552   2.743013   0.072734  -0.269776  -0.031423   0.040684
    15  H   -0.010155   0.072734   2.108062  -0.595996  -0.331042   0.164399
    16  H    0.031705  -0.269776  -0.595996   2.252772   0.232113  -0.440977
    17  H    0.002174  -0.031423  -0.331042   0.232113   2.637975  -0.760279
    18  H   -0.001797   0.040684   0.164399  -0.440977  -0.760279   2.594539
    19  H   -0.005076  -0.490866  -0.187406   0.189967   0.056123  -0.053160
    20  H   -0.001978   0.069219   0.066148  -0.089314  -0.421080   0.260648
    21  H    0.057637  -0.030747   0.009010   0.045494   0.078112  -0.216424
    22  H   -0.000965  -0.000150   0.000055   0.000033   0.000754  -0.002062
    23  H   -0.000108   0.000031   0.000031  -0.000042  -0.001567   0.002619
    24  H   -0.002143  -0.002343   0.000107   0.001915   0.009737  -0.013026
    25  C   -0.067362  -0.127793   0.000482   0.008649   0.057972  -0.023034
    26  H    0.007437   0.000291  -0.000297   0.000256   0.001081  -0.002917
    27  H    0.099000   0.170642   0.014997   0.000674  -0.013633   0.015388
    28  H    0.345329  -0.006457  -0.000532  -0.003009   0.000291  -0.002735
    29  H   -0.014166   0.001240  -0.000436   0.000124  -0.000159   0.003530
    30  O   -0.053266  -0.001357  -0.001459   0.003797   0.001056  -0.003139
    31  H   -0.002285   0.000163   0.000290  -0.001071  -0.000102   0.001116
    32  H    0.008709  -0.004034   0.000687   0.001630  -0.001454   0.005451
    33  H    0.039380  -0.010820   0.001431   0.007865  -0.001737  -0.003102
    34  H    0.012951   0.006022   0.003327  -0.012468  -0.006873   0.014167
    35  H   -0.021603   0.026688  -0.004395   0.006207   0.016499  -0.008906
    36  H   -0.001202  -0.000045   0.000035   0.000010  -0.000017  -0.000600
              19         20         21         22         23         24
     1  N   -0.290403  -0.117635  -0.321488   0.009214  -0.006577   0.029098
     2  C    0.174361  -2.505270   0.093207  -0.022756   0.039614   0.098151
     3  C   -0.105812   0.620438  -0.150254   0.001714   0.006433  -0.073181
     4  C    0.084203   0.041708  -0.052934   0.000061   0.001128  -0.011077
     5  C   -0.224810  -0.062049   0.033555  -0.001306  -0.000878   0.011240
     6  C    0.095258   0.863100  -1.018528  -0.078214   0.013393   1.029231
     7  C    0.002417  -0.179299  -1.099750   0.172572  -0.058028   0.024193
     8  N    0.001227   0.001413  -0.047474  -0.157903  -0.046998  -0.029413
     9  C    0.000065   0.034360  -0.106241  -0.496709   0.405090  -0.212810
    10  C   -0.003981  -0.012182   0.133854   0.119310  -1.192463   0.659322
    11  C    0.012750  -0.029435  -0.154410   0.180408   0.550125  -2.354702
    12  O    0.000008  -0.000346   0.112322  -0.002306  -0.000025   0.000335
    13  O   -0.005076  -0.001978   0.057637  -0.000965  -0.000108  -0.002143
    14  H   -0.490866   0.069219  -0.030747  -0.000150   0.000031  -0.002343
    15  H   -0.187406   0.066148   0.009010   0.000055   0.000031   0.000107
    16  H    0.189967  -0.089314   0.045494   0.000033  -0.000042   0.001915
    17  H    0.056123  -0.421080   0.078112   0.000754  -0.001567   0.009737
    18  H   -0.053160   0.260648  -0.216424  -0.002062   0.002619  -0.013026
    19  H    2.232006  -0.088778   0.017008   0.000027  -0.000259   0.002144
    20  H   -0.088778   3.512924  -0.064781   0.000038   0.003461  -0.158056
    21  H    0.017008  -0.064781   5.382382   0.029101  -0.018935  -0.008384
    22  H    0.000027   0.000038   0.029101   2.041982  -0.119625  -0.005096
    23  H   -0.000259   0.003461  -0.018935  -0.119625   2.173060  -0.145832
    24  H    0.002144  -0.158056  -0.008384  -0.005096  -0.145832   2.992559
    25  C   -0.054786  -0.007247  -0.033941   0.003730  -0.010572   0.062913
    26  H   -0.000094  -0.001234  -0.130925  -0.067786   0.010357  -0.000655
    27  H    0.007918   0.030999   0.009451  -0.004512   0.003162  -0.006169
    28  H    0.000042  -0.002175   0.009094   0.000373  -0.000051   0.000547
    29  H   -0.000263   0.000502  -0.112934   0.002701   0.000128  -0.000373
    30  O    0.000423  -0.000305   0.113704   0.000228   0.000095  -0.000147
    31  H    0.000047  -0.000012   0.001874  -0.000259   0.000007   0.000013
    32  H   -0.000402   0.000619  -0.129054   0.000239  -0.000082   0.000081
    33  H    0.007105   0.024147  -0.000250   0.000411  -0.001199   0.002119
    34  H   -0.009283   0.024746  -0.009692  -0.002699  -0.000257  -0.025593
    35  H    0.069833   0.020947   0.008380   0.000370  -0.000271   0.013588
    36  H    0.000005  -0.000084   0.015287   0.004567  -0.000711   0.000038
              25         26         27         28         29         30
     1  N    1.224911  -0.005037  -0.417403   0.034752   0.002810  -0.014061
     2  C   -0.902101   0.012999   0.479193  -0.037694   0.015042  -0.007024
     3  C   -0.247801  -0.010080   0.122839  -0.012398   0.005640   0.007781
     4  C    0.019064   0.000293  -0.064228   0.010884   0.002960  -0.010606
     5  C   -0.163489  -0.003322  -0.152388   0.001003  -0.001648   0.001721
     6  C    0.435506  -0.001133  -0.181687   0.017478   0.009343  -0.038825
     7  C   -0.036686  -0.095625  -0.011233   0.005774   0.059400  -0.039773
     8  N   -0.031185   0.149585  -0.008956   0.003564  -0.017364  -0.008562
     9  C   -0.030432   0.097808   0.041313  -0.002402  -0.007558  -0.005767
    10  C    0.108835  -0.072358  -0.047446   0.003073   0.000511   0.003820
    11  C   -0.132696   0.013283  -0.000657  -0.005315  -0.002669  -0.000914
    12  O   -0.001393   0.259423  -0.003146   0.003547  -0.005418  -0.048258
    13  O   -0.067362   0.007437   0.099000   0.345329  -0.014166  -0.053266
    14  H   -0.127793   0.000291   0.170642  -0.006457   0.001240  -0.001357
    15  H    0.000482  -0.000297   0.014997  -0.000532  -0.000436  -0.001459
    16  H    0.008649   0.000256   0.000674  -0.003009   0.000124   0.003797
    17  H    0.057972   0.001081  -0.013633   0.000291  -0.000159   0.001056
    18  H   -0.023034  -0.002917   0.015388  -0.002735   0.003530  -0.003139
    19  H   -0.054786  -0.000094   0.007918   0.000042  -0.000263   0.000423
    20  H   -0.007247  -0.001234   0.030999  -0.002175   0.000502  -0.000305
    21  H   -0.033941  -0.130925   0.009451   0.009094  -0.112934   0.113704
    22  H    0.003730  -0.067786  -0.004512   0.000373   0.002701   0.000228
    23  H   -0.010572   0.010357   0.003162  -0.000051   0.000128   0.000095
    24  H    0.062913  -0.000655  -0.006169   0.000547  -0.000373  -0.000147
    25  C    4.628551  -0.002800  -0.186831   0.012299   0.001215  -0.007261
    26  H   -0.002800   0.552133   0.004590  -0.000825  -0.000974  -0.007398
    27  H   -0.186831   0.004590   0.679781  -0.105883   0.007223   0.014500
    28  H    0.012299  -0.000825  -0.105883   0.554870  -0.003271   0.003501
    29  H    0.001215  -0.000974   0.007223  -0.003271   0.346151   0.178600
    30  O   -0.007261  -0.007398   0.014500   0.003501   0.178600   7.896441
    31  H   -0.001014   0.000820  -0.001995   0.001925  -0.054724   0.331952
    32  H    0.019170   0.003105  -0.017773  -0.017166   0.016874   0.121036
    33  H    0.251361  -0.001139   0.038294  -0.009024   0.000761  -0.001083
    34  H   -0.073913   0.001707   0.026516   0.004369   0.000493  -0.000850
    35  H    0.277121   0.000222  -0.052273   0.004602  -0.000360   0.000016
    36  H    0.000442  -0.093457  -0.001040   0.000229  -0.013696   0.001962
              31         32         33         34         35         36
     1  N   -0.000493   0.018797  -0.436998   0.238345  -0.713350   0.000873
     2  C   -0.003703  -0.014349   0.148581   0.052932  -0.018159  -0.004333
     3  C   -0.000272   0.012343  -0.077327   0.097811  -0.015601  -0.000153
     4  C    0.000521  -0.006677   0.066374  -0.049622   0.026334   0.000021
     5  C    0.000077   0.005172   0.009030  -0.044493   0.097529   0.000112
     6  C   -0.002605   0.030638  -0.009955   0.057344   0.045532   0.008638
     7  C    0.018058   0.033696  -0.024582  -0.016119   0.028567   0.010204
     8  N   -0.001723   0.002911  -0.002927   0.006385  -0.002128  -0.008203
     9  C   -0.000333  -0.001093  -0.006784   0.005617   0.005624  -0.010738
    10  C    0.000187   0.004162   0.022403  -0.020880  -0.016261   0.008515
    11  C   -0.000706   0.007438  -0.042913   0.022094   0.088517  -0.006299
    12  O    0.002137  -0.032818  -0.000427  -0.000174   0.000003   0.354896
    13  O   -0.002285   0.008709   0.039380   0.012951  -0.021603  -0.001202
    14  H    0.000163  -0.004034  -0.010820   0.006022   0.026688  -0.000045
    15  H    0.000290   0.000687   0.001431   0.003327  -0.004395   0.000035
    16  H   -0.001071   0.001630   0.007865  -0.012468   0.006207   0.000010
    17  H   -0.000102  -0.001454  -0.001737  -0.006873   0.016499  -0.000017
    18  H    0.001116   0.005451  -0.003102   0.014167  -0.008906  -0.000600
    19  H    0.000047  -0.000402   0.007105  -0.009283   0.069833   0.000005
    20  H   -0.000012   0.000619   0.024147   0.024746   0.020947  -0.000084
    21  H    0.001874  -0.129054  -0.000250  -0.009692   0.008380   0.015287
    22  H   -0.000259   0.000239   0.000411  -0.002699   0.000370   0.004567
    23  H    0.000007  -0.000082  -0.001199  -0.000257  -0.000271  -0.000711
    24  H    0.000013   0.000081   0.002119  -0.025593   0.013588   0.000038
    25  C   -0.001014   0.019170   0.251361  -0.073913   0.277121   0.000442
    26  H    0.000820   0.003105  -0.001139   0.001707   0.000222  -0.093457
    27  H   -0.001995  -0.017773   0.038294   0.026516  -0.052273  -0.001040
    28  H    0.001925  -0.017166  -0.009024   0.004369   0.004602   0.000229
    29  H   -0.054724   0.016874   0.000761   0.000493  -0.000360  -0.013696
    30  O    0.331952   0.121036  -0.001083  -0.000850   0.000016   0.001962
    31  H    0.561786  -0.057645  -0.000749   0.000176  -0.000002   0.001405
    32  H   -0.057645   0.368675   0.005455  -0.004667   0.002793  -0.001733
    33  H   -0.000749   0.005455   2.307210  -0.658470  -0.394490   0.000123
    34  H    0.000176  -0.004667  -0.658470   1.940814  -0.437521  -0.000097
    35  H   -0.000002   0.002793  -0.394490  -0.437521   2.136347   0.000000
    36  H    0.001405  -0.001733   0.000123  -0.000097   0.000000   0.566671
 Mulliken charges:
               1
     1  N   -1.427292
     2  C    0.917395
     3  C    1.144537
     4  C    0.810209
     5  C    1.375039
     6  C    0.889448
     7  C    1.140864
     8  N   -0.638743
     9  C    0.282110
    10  C    0.503261
    11  C    1.203604
    12  O   -0.485349
    13  O   -0.585934
    14  H   -0.513114
    15  H   -0.337962
    16  H   -0.263041
    17  H   -0.451637
    18  H   -0.430519
    19  H   -0.437558
    20  H   -0.834154
    21  H   -1.442327
    22  H   -0.605542
    23  H   -0.604256
    24  H   -0.888334
    25  C    1.030111
    26  H    0.382664
    27  H    0.510774
    28  H    0.191395
    29  H    0.580766
    30  O   -0.430577
    31  H    0.207140
    32  H    0.619267
    33  H   -0.248072
    34  H   -0.142146
    35  H   -0.190401
    36  H    0.168376
 Sum of Mulliken charges =   1.00000
 Mulliken charges with hydrogens summed into heavy atoms:
               1
     1  N   -1.427292
     2  C    0.083241
     3  C    0.262381
     4  C    0.209205
     5  C    0.424366
     6  C    0.889448
     7  C   -0.301463
     8  N   -0.638743
     9  C   -0.323432
    10  C   -0.100995
    11  C    0.315270
    12  O    0.065690
    13  O    0.116235
    25  C    0.449493
    30  O    0.976596
 APT charges:
               1
     1  N   -0.712636
     2  C    0.336708
     3  C    0.040000
     4  C    0.066433
     5  C    0.290738
     6  C   -0.070550
     7  C    0.111294
     8  N   -0.466973
     9  C    0.161980
    10  C   -0.114996
    11  C    0.096988
    12  O   -0.881192
    13  O   -0.912568
    14  H   -0.007723
    15  H   -0.000320
    16  H   -0.016934
    17  H   -0.003516
    18  H   -0.003704
    19  H   -0.045148
    20  H   -0.059754
    21  H    0.048707
    22  H    0.056340
    23  H    0.067855
    24  H    0.064842
    25  C    0.253417
    26  H    0.642204
    27  H    0.627515
    28  H    0.267100
    29  H    0.675439
    30  O   -0.847674
    31  H    0.333299
    32  H    0.714762
    33  H    0.005775
    34  H    0.003796
    35  H   -0.019645
    36  H    0.298143
 Sum of APT charges =   1.00000
 APT charges with hydrogens summed into heavy atoms:
               1
     1  N   -0.712636
     2  C    0.276954
     3  C    0.032780
     4  C    0.049179
     5  C    0.237867
     6  C   -0.070550
     7  C    0.160001
     8  N   -0.466973
     9  C    0.218319
    10  C   -0.047141
    11  C    0.161830
    12  O    0.059154
    13  O   -0.017953
    25  C    0.243343
    30  O    0.875827
 Electronic spatial extent (au):  <R**2>=           3714.4791
 Charge=              1.0000 electrons
 Dipole moment (field-independent basis, Debye):
    X=              1.7679    Y=              2.7747    Z=              2.8978  Tot=              4.3842
 Quadrupole moment (field-independent basis, Debye-Ang):
   XX=            -56.1973   YY=            -52.6188   ZZ=            -83.5555
   XY=              7.5928   XZ=              4.4800   YZ=              3.6256
 Traceless Quadrupole moment (field-independent basis, Debye-Ang):
   XX=              7.9265   YY=             11.5051   ZZ=            -19.4316
   XY=              7.5928   XZ=              4.4800   YZ=              3.6256
 Octapole moment (field-independent basis, Debye-Ang**2):
  XXX=             74.5234  YYY=             97.2599  ZZZ=             23.7677  XYY=             62.2166
  XXY=             26.2685  XXZ=             18.5146  XZZ=            -14.6995  YZZ=             22.3496
  YYZ=             20.7628  XYZ=              5.0165
 Hexadecapole moment (field-independent basis, Debye-Ang**3):
 XXXX=          -1924.1558 YYYY=          -1051.6408 ZZZZ=           -545.8901 XXXY=            119.3209
 XXXZ=             77.0131 YYYX=            154.0192 YYYZ=             13.1168 ZZZX=            -12.3435
 ZZZY=             43.3040 XXYY=           -518.2231 XXZZ=           -495.8055 YYZZ=           -369.6469
 XXYZ=             20.8853 YYXZ=             29.4028 ZZXY=             15.7902
 N-N= 1.117633886234D+03 E-N=-3.918839450902D+03  KE= 7.240927116552D+02
  Exact polarizability: 177.078  -5.993 160.906   3.389  -6.801 121.229
 Approx polarizability: 182.888   0.054 180.158   4.273  -8.043 138.685
 Calling FoFJK, ICntrl=    100127 FMM=F ISym2X=0 I1Cent= 0 IOpClX= 0 NMat=1 NMatS=1 NMatT=0.
 ***** Axes restored to original set *****
 -------------------------------------------------------------------
 Center     Atomic                   Forces (Hartrees/Bohr)
 Number     Number              X              Y              Z
 -------------------------------------------------------------------
      1        7          -0.000001776   -0.000015101   -0.000003316
      2        6           0.000001456    0.000000387    0.000007023
      3        6          -0.000002404   -0.000000462    0.000000593
      4        6          -0.000001887   -0.000000574   -0.000002105
      5        6           0.000004244    0.000000982   -0.000002071
      6        6           0.000006810    0.000006330    0.000002463
      7        6          -0.000001807   -0.000002586    0.000002346
      8        7           0.000000109    0.000002734    0.000003752
      9        6           0.000002712   -0.000007004    0.000001029
     10        6          -0.000006160   -0.000001068   -0.000001169
     11        6           0.000004973    0.000009491   -0.000002631
     12        8           0.000007244   -0.000003781    0.000005606
     13        8          -0.000118296    0.000129302    0.000006058
     14        1          -0.000000207   -0.000000394    0.000000029
     15        1          -0.000000022   -0.000000481   -0.000000989
     16        1           0.000000434   -0.000000941   -0.000000287
     17        1          -0.000000234    0.000000086    0.000001106
     18        1          -0.000000017   -0.000000870   -0.000001746
     19        1           0.000000511    0.000000399   -0.000000171
     20        1           0.000000669    0.000000477    0.000001244
     21        1          -0.000004109   -0.000004478    0.000003084
     22        1          -0.000001068    0.000000368    0.000000424
     23        1           0.000000240    0.000001427    0.000000731
[...]
 ,-0.00002141,0.00010843,-0.00001974,-0.00002794,0.00000128,-0.00000302
 ,0.00001318,-0.00000228,0.00000003,0.00000332,0.00000257,-0.00001479,0
 .00000373,-0.00000878,0.00000603,0.00001075,-0.00006887,0.00008443,-0.
 00015548,0.00049206,0.00028961,0.00008768,0.00061675,0.00072943,-0.000
 06017,-0.00299216,0.00035211,-0.00267263,0.01943884,-0.05461005,-0.015
 15072,-0.01226151,0.03786963,0.01423802,0.00400520,0.00722679,0.003735
 76,0.00215462,-0.00104750,-0.00198848,0.00011643,0.00010603,-0.0001058
 3,0.00004251,-0.00026587,-0.00007901,-0.00159724,0.00045388,-0.0007833
 6,0.00069696,-0.00049618,0.00029493,-0.00012713,0.00035437,-0.00001373
 ,-0.00121125,-0.00252993,0.00015799,-0.00060234,0.00090212,-0.00040027
 ,-0.00046434,-0.00049041,0.00010247,-0.00013637,-0.00044505,0.00017129
 ,0.00710057,-0.00784216,-0.00127077,-0.00620665,0.01358832,-0.01087244
 ,-0.00049410,-0.00003312,0.00007462,0.00008868,0.00024944,0.00018067,-
 0.00002757,0.00024028,-0.00047491,-0.00003101,0.00006444,0.00012887,-0
 .00014356,-0.00001179,0.00016744,0.00052986,0.00025300,0.00028566,-0.0
 0023334,0.00075519,0.00056664,0.00133516,0.00106063,-0.00009871,0.0000
 4516,0.00005890,-0.00003615,-0.00008986,-0.00006563,-0.00001442,0.0000
 6144,-0.00018711,-0.00001063,-0.00007473,-0.00102965,0.00133096,0.0019
 4722,0.00656915,0.00026924,-0.00865192,-0.01551479,-0.01333512,0.01079
 467,0.00899598,-0.00080419,-0.02129420,0.00546871,0.00760542,-0.082687
 10,-0.02054192,0.05227835,0.00993117,-0.00153057,-0.00879405,0.0859858
 0,0.00204980,0.00348269,0.00145985,0.00079132,-0.00073691,-0.00110017,
 0.00004876,0.00004435,-0.00011076,0.00008142,0.00010914,-0.00003645,-0
 .00106545,0.00026240,-0.00063273,-0.00011432,0.00033190,0.00004019,0.0
 0040034,-0.00130787,0.00084929,-0.00107386,-0.00175708,0.00025550,-0.0
 0023799,0.00079171,-0.00038475,-0.00055716,-0.00030927,0.00000279,0.00
 023185,-0.00041319,0.00006360,0.00862277,-0.01059290,0.00016694,0.0097
 7350,-0.00600272,-0.01707089,-0.00029719,0.00002418,0.00000495,0.00006
 535,0.00007554,0.00012311,-0.00002298,0.00008513,-0.00020817,0.0000440
 2,0.00001938,0.00007475,-0.00009299,0.00002838,0.00003060,0.00030075,0
 .00014727,0.00022216,-0.00006327,0.00040970,0.00030420,0.00081621,0.00
 011380,-0.00171625,0.00000864,0.00009937,-0.00003756,-0.00005496,-0.00
 003781,0.00000161,0.00002257,-0.00003577,-0.00002670,0.00002668,-0.000
 51920,0.00066337,0.00301116,0.00527219,-0.00022515,-0.00632082,-0.0109
 4598,-0.00245082,0.00733002,0.00339808,0.00091221,-0.01613946,0.023832
 58,-0.00934951,0.00252269,-0.07920994,0.01844832,-0.01591940,-0.009049
 55,0.01563303,0.00591502,0.08308522,-0.00395613,-0.00779069,-0.0045101
 8,-0.00213624,0.00054276,0.00194412,-0.00007226,-0.00011790,0.00021096
 ,-0.00015461,-0.00039200,0.00025391,0.00161156,-0.00057892,0.00097693,
 -0.00064473,0.00079340,-0.00044117,0.00066601,-0.00128002,0.00057674,0
 .00051909,0.00213988,-0.00046461,0.00036348,-0.00044686,0.00020439,0.0
 0017957,0.00035007,-0.00004390,0.00031224,0.00032263,-0.00011883,-0.00
 712450,0.00892335,0.00011918,-0.02488741,-0.02989783,-0.02211742,0.000
 38333,0.00000142,-0.00002624,0.00003305,0.00003779,-0.00018883,-0.0001
 4492,0.00016417,0.00018840,0.00007009,0.00005997,-0.00013997,0.0001887
 2,-0.00008191,-0.00028725,-0.00049246,-0.00010249,-0.00032455,0.000236
 85,-0.00071893,-0.00061823,-0.00041938,-0.00171296,-0.00036895,-0.0000
 5648,-0.00000544,0.00002367,0.00006054,0.00005795,0.00002419,-0.000065
 41,0.00017932,0.00000392,0.00020636,0.00098067,-0.00120104,-0.00206882
 ,-0.00450769,0.00029329,0.00331535,0.01772827,0.01711736,0.00452473,0.
 00187782,-0.00506424,0.01309122,-0.01839176,0.00090729,0.05685092,0.03
 931406,-0.07887297,-0.01257863,-0.00197922,0.00642413,-0.02804564,-0.0
 0584039,0.08503193,-0.00301012,0.00167114,0.00196011,0.00033107,-0.000
 79344,-0.00008245,0.00019029,0.00041107,-0.00005916,-0.00007942,-0.000
 07794,-0.00001240,0.00066612,-0.00047845,-0.00089895,0.00030198,-0.000
 04025,0.00009527,0.00021929,0.00019405,-0.00002017,-0.00014891,-0.0000
 8414,-0.00004838,0.00000312,-0.00000582,0.00002128,0.00006069,-0.00001
 293,0.00002513,-0.00004265,-0.00017874,0.00000968,0.00006766,-0.000192
 26,-0.00004365,0.00023722,-0.00007795,-0.00084000,0.00027746,0.0001145
 1,0.00007543,0.00001653,-0.00001599,-0.00002644,-0.00002847,-0.0000155
 2,0.00002654,0.00003039,-0.00008390,0.00009759,0.00000187,0.00002234,-
 0.00006443,-0.00001520,-0.00020663,0.00006346,0.00000974,0.00031437,0.
 00011281,0.00000712,-0.00001355,0.00002956,-0.00000468,-0.00000128,-0.
 00000152,-0.00001222,-0.00000207,-0.00000288,-0.00003507,-0.00003112,-
 0.00002089,-0.08580122,0.06596484,0.06791782,0.00007022,0.00020787,0.0
 0001582,0.00021806,0.00083164,0.00111746,-0.00050482,-0.00061944,0.000
 20307,-0.00020239,0.00014809,0.00004206,0.00037097,0.00010951,-0.00025
 827,0.00001181,-0.00002337,0.00001511,-0.00052868,-0.00032866,0.000409
 75,0.08755098,-0.00850136,0.01248492,0.01491000,0.00011963,-0.00175575
 ,0.00229559,0.00003766,0.00064962,0.00087033,-0.00035186,0.00018691,-0
 .00022914,-0.00035724,0.00112361,0.00041079,0.00018444,0.00007883,0.00
 002628,-0.00012336,-0.00010532,-0.00000823,0.00013275,0.00005202,0.000
 01918,-0.00002746,0.00002349,-0.00001080,-0.00005777,0.00006480,-0.000
 03893,-0.00005895,-0.00011786,-0.00003367,0.00003596,0.00006639,0.0000
 0321,0.00025353,0.00007918,-0.00009059,-0.00004065,-0.00000334,-0.0002
 5859,0.00000994,-0.00000933,-0.00004544,0.00000742,-0.00001699,0.00000
 505,-0.00000743,-0.00010279,0.00026135,-0.00004453,0.00004752,0.000074
 60,0.00011442,-0.00039854,-0.00009141,0.00020232,0.00048877,0.00037084
 ,0.00001883,0.00001563,-0.00000140,0.00000859,0.00000892,-0.00000026,-
 0.00000676,-0.00000002,-0.00000148,-0.00003617,0.00012086,0.00005906,0
 .06835735,-0.16842880,-0.12143160,-0.00004024,-0.00010193,0.00000231,-
 0.00024042,0.00025017,0.00019112,-0.00013080,0.00002955,0.00003665,-0.
 00001798,0.00000360,-0.00000130,0.00008253,0.00006534,-0.00006972,0.00
 000025,-0.00001949,-0.00000109,-0.00010333,-0.00008144,0.00012223,-0.0
 7114371,0.17523147,0.01380369,-0.01861632,-0.02511915,-0.00117063,0.00
 462286,-0.00340182,0.00068772,-0.00104188,-0.00096099,0.00026672,0.000
 01998,0.00005801,0.00100490,-0.00164479,0.00078750,-0.00070014,0.00007
 046,-0.00000216,0.00018267,0.00003949,0.00008920,0.00001056,0.00007622
 ,0.00000211,0.00004257,-0.00007040,0.00000350,0.00009165,-0.00002551,0
 .00005718,0.00009174,0.00007247,0.00012465,-0.00003856,0.00010017,0.00
 002157,-0.00011547,0.00068739,0.00068892,-0.00041581,0.00067183,-0.000
 17344,-0.00004620,0.00004713,0.00007414,-0.00004705,0.00002728,0.00003
 187,-0.00005429,0.00022284,-0.00036851,-0.00009915,0.00014787,-0.00027
 317,-0.00024119,-0.00002536,-0.00007690,-0.00012083,0.00018692,0.00021
 740,-0.00001854,-0.00002922,-0.00002871,-0.00000112,-0.00000596,-0.000
 00498,0.00001985,-0.00000310,-0.00000052,-0.00003639,-0.00002599,-0.00
 006813,0.06423410,-0.11291252,-0.16241994,-0.00003350,-0.00009885,-0.0
 0001071,-0.00028371,-0.00149759,-0.00111591,0.00039714,0.00022452,0.00
 013835,0.00011415,-0.00008583,-0.00002365,-0.00020897,-0.00006083,0.00
 013627,0.00000127,0.00000593,0.00000020,0.00030193,0.00021462,-0.00020
 727,-0.07510689,0.12319768,0.18478003,0.00728066,-0.00220472,0.0014390
 0,0.00006170,0.00061291,0.00035589,-0.00008899,-0.00009026,-0.00018489
 ,0.00032437,0.00001776,0.00038919,0.00072809,-0.00047355,0.00067400,-0
 .00021833,-0.00029754,0.00068623,0.00046682,0.00012903,0.00001818,-0.0
 0022861,0.00006876,-0.00010005,-0.00001008,-0.00020091,-0.00000984,0.0
 0020447,0.00006124,0.00013139,-0.00037414,0.00029914,0.00033283,0.0000
 1908,-0.00002511,0.00000726,0.00026733,0.00032710,0.00015879,-0.000028
 08,-0.00011406,0.00006043,-0.00001263,-0.00002963,0.00005751,0.0000460
 0,0.00000620,-0.00010419,-0.00000451,-0.00000454,-0.00001935,0.0000424
 4,-0.00000400,-0.00001563,0.00039658,0.00004154,0.00028686,-0.00021271
 ,-0.00009300,0.00007878,-0.00002139,0.00000167,0.00001985,-0.00000236,
 -0.00000880,-0.00000141,0.00001950,-0.00000719,-0.00002384,-0.00001468
 ,-0.00012421,-0.00010774,-0.26793064,0.07774859,-0.07701757,0.00000460
 ,0.00002242,-0.00000071,-0.00024733,-0.00035740,-0.00025927,-0.0000372
 0,0.00022090,-0.00004122,-0.00004440,0.00002825,-0.00000076,0.00005015
 ,-0.00000497,-0.00001079,-0.00000988,-0.00000143,-0.00000609,-0.000027
 88,0.00000535,0.00002437,-0.00822814,0.00128500,-0.00360736,0.28306735
 ,0.01555835,-0.00859502,0.00626263,0.00007345,0.00029029,-0.00067999,0
 .00005031,-0.00020129,-0.00003010,0.00115810,0.00018866,0.00040885,-0.
 00208379,-0.00019912,0.00260108,0.00003236,0.00017382,-0.00019526,0.00
 008429,-0.00000130,-0.00006655,-0.00024639,-0.00006351,-0.00006029,-0.
 00002262,-0.00002976,0.00003350,0.00009438,-0.00005084,0.00005077,0.00
 007229,0.00016276,-0.00022462,0.00003760,-0.00009046,-0.00005278,-0.00
 052213,-0.00004279,-0.00061577,-0.00024602,0.00026343,-0.00016450,-0.0
 0014430,-0.00009980,0.00036324,0.00000683,-0.00002689,-0.00009018,-0.0
 0001585,0.00002294,0.00000820,-0.00002367,0.00002703,0.00002320,0.0004
 0603,0.00010209,0.00015405,-0.00029297,-0.00004331,0.00022010,-0.00000
 906,-0.00003152,0.00004178,-0.00000984,-0.00000990,0.00000319,0.000007
 01,-0.00000191,0.00000158,-0.00003827,-0.00012710,-0.00011724,0.073442
 46,-0.07490964,0.02621192,0.00003457,0.00011623,0.00002705,0.00122849,
 0.00068849,0.00082421,0.00013462,-0.00057211,0.00001591,-0.00008554,0.
 00005229,0.00003811,0.00016481,0.00006513,-0.00014717,0.00001250,-0.00
 002077,0.00001705,-0.00027765,-0.00020755,0.00023472,0.01769854,-0.005
 71886,0.00742570,-0.08412594,0.07981224,-0.02955538,0.01365297,-0.0132
 8037,-0.00145742,0.00043302,0.00098353,-0.00014853,0.00022697,0.000207
 91,-0.00167992,0.00074352,-0.00054940,0.00344648,0.00097639,-0.0046873
 7,0.00014103,-0.00016008,-0.00061040,0.00035316,0.00037445,-0.00001582
 ,-0.00023712,-0.00012652,-0.00002710,0.00000304,-0.00003133,0.00000395
 ,0.00008263,-0.00013641,0.00003870,0.00036287,-0.00024726,-0.00008639,
 0.00000669,-0.00027569,-0.00001459,0.00050200,0.00055149,0.00019952,-0
 .00011266,0.00031874,0.00010143,0.00021728,0.00016375,-0.00051413,0.00
 003141,0.00004569,-0.00012147,0.00002718,-0.00003607,0.00003714,0.0000
 6153,-0.00004364,-0.00001702,0.00018116,-0.00018470,-0.00000805,0.0000
 3298,-0.00022221,-0.00008323,-0.00004057,-0.00007245,0.00001362,-0.000
 01659,-0.00001010,0.00000075,-0.00000682,0.00000612,0.00001551,-0.0000
 2421,-0.00008348,-0.00004518,-0.06878817,0.02417664,-0.07247239,0.0001
 3608,0.00033080,0.00000013,-0.00081691,-0.00095103,-0.00038478,0.00001
 277,0.00000850,0.00009544,-0.00017145,0.00013938,0.00002333,0.00019186
 ,-0.00003868,-0.00008244,-0.00001082,0.00000844,-0.00000358,-0.0001769
 4,-0.00003534,0.00013337,0.01912963,-0.00567132,0.00822345,0.08143051,
 -0.03450213,0.08364825,-0.00262544,-0.00473453,0.00432754,0.00011965,-
 0.00111083,-0.00105089,0.00019206,0.00023269,0.00000037,0.00007659,0.0
 0013792,-0.00022221,0.00220218,0.00224698,-0.00010360,-0.00004461,0.00
 015918,-0.00003550,0.00002851,-0.00009043,0.00007922,0.00012654,0.0001
 0717,-0.00000341,0.00002358,0.00000318,-0.00000596,0.00001084,0.000080
 56,-0.00005417,-0.00014337,-0.00041402,-0.00000463,-0.00006768,0.00007
 068,0.00002838,-0.00046029,-0.00088189,-0.00049285,-0.00007021,-0.0000
 8507,0.00000109,-0.00001982,-0.00001393,0.00003976,-0.00007215,0.00001
 648,-0.00008317,0.00001292,0.00000165,0.00007251,-0.00006111,0.0001203
 7,-0.00008424,0.00045215,-0.00080400,0.00045073,-0.00020335,0.00061394
 ,0.00083822,0.00001986,0.00005182,-0.00003803,0.00000933,0.00001617,0.
 00000182,-0.00001711,-0.00000452,-0.00000223,-0.00002480,0.00016570,0.
 00011777,-0.14952754,-0.12317988,-0.01759940,-0.00000885,-0.00006613,-
 0.00001661,0.00097367,0.00171549,0.00087282,-0.00021207,0.00004080,0.0
 0007044,0.00013356,-0.00007498,-0.00002657,-0.00020792,-0.00006886,0.0
 0013923,-0.00000032,0.00002842,-0.00000568,0.00028442,0.00018335,-0.00
 025100,0.00800444,0.01044974,0.00109467,-0.01523843,-0.02213611,-0.003
 12025,0.15631900,-0.01128468,-0.01791164,0.00840355,0.00174771,0.00136
 970,-0.00166924,0.00027878,0.00023630,-0.00024604,0.00036060,0.0003189
 5,0.00002864,-0.00237333,0.00051247,-0.00130255,0.00010135,-0.00006198
 ,0.00001121,0.00006007,-0.00012779,0.00000684,-0.00004208,0.00004743,0
 .00002870,-0.00000050,0.00003017,-0.00001372,-0.00005827,0.00001404,-0
 .00001166,-0.00006655,-0.00007165,-0.00000052,-0.00010709,0.00005484,0
 .00001617,-0.00105468,-0.00144376,-0.00104033,0.00007095,-0.00008365,-
 0.00005735,0.00000332,0.00002450,0.00014195,0.00014969,0.00009464,-0.0
 0023493,0.00000227,-0.00003058,0.00008264,-0.00000640,0.00005182,-0.00
 010461,0.00123696,-0.00009286,0.00061675,-0.00050168,0.00078829,0.0010
 2545,0.00002841,0.00004990,-0.00005238,-0.00000326,0.00000445,-0.00000
 450,-0.00000648,0.00000404,0.00000195,-0.00000855,0.00002159,0.0000280
 1,-0.12198471,-0.19901522,-0.02170023,0.00000828,-0.00001497,-0.000002
 68,0.00175892,0.00271552,0.00203196,0.00007768,-0.00019035,0.00009224,
 0.00020220,-0.00011680,-0.00002236,-0.00035087,-0.00014034,0.00022636,
 -0.00000186,0.00004483,-0.00000744,0.00049983,0.00034187,-0.00040144,-
 0.01326153,-0.01420394,-0.00191636,0.00729166,0.00908243,0.00065884,0.
 13721655,0.21768835,0.02172773,0.03069873,-0.00831310,0.00063997,0.005
 09708,0.00289839,-0.00031285,-0.00023794,0.00025879,-0.00014845,-0.000
 24335,0.00010340,0.00393877,0.00012647,0.00161923,-0.00013481,-0.00051
 080,-0.00010053,0.00001914,0.00017945,-0.00007630,-0.00006891,-0.00005
 279,0.00001820,0.00003439,-0.00006718,-0.00000224,0.00006314,-0.000010
 70,0.00002031,-0.00001893,0.00002541,0.00005820,0.00000005,-0.00003196
 ,0.00001977,0.00076206,0.00123425,0.00142088,-0.00037320,-0.00008104,-
 0.00018269,-0.00003872,-0.00010218,-0.00005438,-0.00005744,-0.00013101
 ,0.00006876,-0.00006020,-0.00002922,-0.00005426,-0.00000636,-0.0000806
 4,0.00012281,-0.00095911,-0.00099322,0.00023556,-0.00076354,-0.0014643
 4,0.00012312,-0.00006019,-0.00004730,0.00003584,-0.00000091,-0.0000066
 0,0.00000260,0.00000011,-0.00000273,0.00000262,0.00001782,-0.00002417,
 0.00000520,-0.01976449,-0.02466031,-0.05154554,0.00000842,0.00003442,-
 0.00001166,-0.00138839,-0.00171559,-0.00278903,0.00037116,0.00057063,-
 0.00004771,-0.00002855,0.00001564,-0.00001028,0.00000621,-0.00002814,0
 .00001729,-0.00000551,0.00000303,-0.00000357,0.00004808,0.00005551,-0.
 00002491,-0.01389578,-0.01486654,-0.00117507,-0.00463250,-0.00804107,-
 0.00073348,0.01507175,0.01538491,0.05810436,0.00015195,0.00010619,0.00
 004280,-0.00006113,0.00001810,-0.00002812,-0.00000392,-0.00001519,-0.0
 0001019,-0.00000290,-0.00000397,0.00001322,-0.00006686,0.00001441,-0.0
 0004259,0.00001327,0.00008426,-0.00006151,-0.00035764,0.00017581,-0.00
 011529,0.00088070,0.00125517,0.00027628,0.00048281,-0.00037298,0.00009
 977,-0.00003074,0.00011376,-0.00006520,0.00006338,-0.00001331,0.000010
 48,-0.38165675,-0.09330030,-0.22456236,0.00039817,0.00014271,0.0000333
 0,-0.00000301,-0.00000907,-0.00000163,0.00001589,0.00000230,0.00000562
 ,-0.00001020,0.00000753,-0.00001106,0.00001469,0.00000991,-0.00000029,
 0.00000127,0.00000047,-0.00002308,0.00001942,0.00001495,0.00000672,0.0
 0002807,0.00001471,0.00000203,0.00003856,0.00002154,-0.00000322,-0.000
 01649,0.00006286,-0.00001864,0.00002905,0.00004499,-0.00000433,0.00000
 505,0.00001079,0.00000322,-0.00002638,-0.00002999,0.00003663,-0.004408
 60,-0.00009562,-0.00272855,-0.00020624,-0.00025679,-0.00010184,-0.0001
 6740,0.00001874,0.00006666,-0.00238227,-0.00556230,-0.00569329,-0.0009
 6062,0.00249938,0.00119973,-0.00090343,0.00033083,-0.00010321,-0.00049
 061,0.00003695,0.00005136,-0.00000505,-0.00001032,0.00000048,0.0000012
 7,-0.00001682,0.00001349,0.00001576,0.00001729,0.00001004,0.38960096,0
 .00009765,0.00003761,0.00002173,-0.00007266,-0.00000306,-0.00001192,0.
 00000249,-0.00001193,-0.00000992,-0.00000210,-0.00000225,0.00001368,-0
 .00004319,0.00001444,-0.00002696,0.00008029,0.00011859,-0.00007867,0.0
 0089354,0.00020168,0.00007308,0.00038426,-0.00466420,0.00159734,-0.001
 11745,-0.00046334,-0.00004567,0.00020744,-0.00031928,0.00004439,0.0000
 5748,-0.00002112,0.00000547,-0.06526881,-0.07099566,-0.04626770,0.0003
 8129,0.00024498,-0.00023575,-0.00000062,-0.00000643,-0.00000280,0.0000
 1217,0.00000280,0.00000242,-0.00000932,0.00000482,-0.00000753,0.000008
 95,0.00000561,0.00000004,0.00000143,-0.00000074,-0.00001999,0.00001355
 ,0.00000823,0.00000361,0.00001206,0.00000674,0.00000159,0.00003518,0.0
 0017279,-0.00002375,0.00005220,-0.00022796,0.00002059,-0.00005377,-0.0
 0006201,0.00001022,0.00001368,0.00001185,0.00000704,-0.00001727,-0.000
 01796,0.00002503,-0.03157044,0.00429213,-0.02134398,-0.00009336,-0.000
 09901,-0.00007823,0.00000826,0.00009041,0.00004774,-0.00646286,0.01011
 296,0.00755459,0.00677447,-0.00487679,-0.00205211,0.00133506,0.0001207
 9,-0.00001259,-0.00034940,-0.00074770,0.00041597,0.00000074,-0.0000071
 9,-0.00000083,-0.00000028,-0.00000438,0.00001273,0.00000634,0.00000940
 ,0.00000329,0.09468298,0.06707520,-0.00001340,-0.00002484,-0.00005159,
 -0.00003019,0.00003022,0.00003991,-0.00000540,-0.00000548,0.00000084,-
 0.00000514,-0.00000404,-0.00000023,0.00001493,-0.00000512,0.00000594,-
 0.00002360,0.00006531,-0.00000059,0.00007215,0.00000224,-0.00002744,0.
 00013087,0.00112458,-0.00002642,0.00018892,0.00003868,0.00006568,-0.00
 001194,0.00007660,-0.00006981,0.00002807,0.00003193,0.00000292,-0.2358
 1232,-0.06589035,-0.14381300,0.00006956,0.00009476,-0.00032754,0.00000
 507,-0.00000570,-0.00000269,-0.00000064,0.00000040,-0.00000357,-0.0000
 0077,0.00000415,0.00000562,-0.00000023,0.00000041,-0.00000170,0.000008
 95,0.00000497,0.00000026,-0.00000181,0.00000198,-0.00000462,0.00001083
 ,-0.00000231,-0.00000606,0.00001722,0.00000610,-0.00013361,-0.00004913
 ,0.00002933,0.00011186,0.00001077,0.00002870,-0.00000331,0.00000976,0.
 00001786,-0.00000306,0.00001400,-0.00001782,0.00003336,0.00218590,0.00
 114133,-0.00060831,0.00005653,0.00009066,0.00003542,0.00017314,0.00003
 161,0.00004366,-0.00262135,0.00666575,0.00074886,0.00368452,-0.0034118
 4,-0.00062103,0.00058699,-0.00019520,0.00032440,-0.00039567,-0.0003009
 4,0.00058676,0.00001467,-0.00000478,-0.00000332,-0.00000786,0.00002084
 ,0.00001114,-0.00000593,0.00000218,-0.00001054,0.23170253,0.06035782,0
 .14370180\\0.00000257,0.00000124,0.00000046,-0.00000141,0.00000133,-0.
 00000136,0.00000025,0.00000034,0.00000008,0.00000150,0.00000012,0.0000
 0090,-0.00000050,0.00000014,-0.00000029,-0.00000365,-0.00000097,-0.000
 00054,0.00000095,-0.00000011,-0.00000067,-0.00000109,-0.00000253,0.000
 00038,-0.00000004,0.00000483,-0.00000124,0.00000287,-0.00000080,0.0000
 0053,-0.00000372,-0.00000488,0.00000110,-0.00000118,-0.00000195,0.0000
 0027,-0.00000037,0.00000087,-0.00000153,-0.00000008,0.00000050,0.00000
 023,-0.00000007,0.00000076,0.00000017,-0.00000005,0.00000046,-0.000000
 04,-0.00000023,0.00000044,-0.00000020,0.00000003,0.00000068,0.00000052
 ,-0.00000040,0.00000030,0.00000025,-0.00000016,0.00000002,-0.00000041,
 0.00000144,0.00000182,-0.00000028,0.00000056,-0.00000053,-0.00000041,-
 0.00000051,-0.00000074,-0.00000057,-0.00000034,0.00000069,-0.00000085,
 -0.00000020,0.,-0.00000052,-0.00000041,0.00000045,-0.00000015,0.000000
 64,0.00000074,0.00000163,0.00000038,-0.00000109,-0.00000067,0.00000193
 ,0.00000080,0.00000061,-0.00000011,-0.00000116,0.00000108,0.00000051,-
 0.00000062,0.00000004,0.00000036,-0.00000070,0.00000095,0.00000005,0.0
 0000016,0.00000043,-0.00000022,-0.00000021,-0.00000021,0.00000022,0.00
 000015,0.00000002,0.00000049,-0.00000055,0.00000029\\\@


 Everything starts as somebody's daydream.
                           -- Larry Niven
 Job cpu time:       1 days  0 hours 45 minutes  7.7 seconds.
 Elapsed time:       0 days  0 hours 53 minutes  5.2 seconds.
 File lengths (MBytes):  RWF=   1056 Int=      0 D2E=      0 Chk=     28 Scr=      8
 Normal termination of Gaussian 16 at Sat Feb 11 15:34:12 2023.
