 Entering Gaussian System, Link 0=g16
 Input=NicPyWa3h3bL.gjf
 Output=NicPyWa3h3bL.log
 Initial command:
 /sw/contrib/gaussian/g16/A03/g16/l1.exe "/gscratch/scrubbed/gds001/Gau-8165.inp" -scrdir="/gscratch/scrubbed/gds001/"
 Entering Link 1 = /sw/contrib/gaussian/g16/A03/g16/l1.exe PID=      8166.
  
 Copyright (c) 1988,1990,1992,1993,1995,1998,2003,2009,2016,
            Gaussian, Inc.  All Rights Reserved.
  
 This is part of the Gaussian(R) 16 program.  It is based on
 the Gaussian(R) 09 system (copyright 2009, Gaussian, Inc.),
 the Gaussian(R) 03 system (copyright 2003, Gaussian, Inc.),
 the Gaussian(R) 98 system (copyright 1998, Gaussian, Inc.),
 the Gaussian(R) 94 system (copyright 1995, Gaussian, Inc.),
 the Gaussian 92(TM) system (copyright 1992, Gaussian, Inc.),
 the Gaussian 90(TM) system (copyright 1990, Gaussian, Inc.),
 the Gaussian 88(TM) system (copyright 1988, Gaussian, Inc.),
 the Gaussian 86(TM) system (copyright 1986, Carnegie Mellon
 University), and the Gaussian 82(TM) system (copyright 1983,
 Carnegie Mellon University). Gaussian is a federally registered
 trademark of Gaussian, Inc.
  
 This software contains proprietary and confidential information,
 including trade secrets, belonging to Gaussian, Inc.
  
 This software is provided under written license and may be
 used, copied, transmitted, or stored only in accord with that
 written license.
  
 The following legend is applicable only to US Government
 contracts under FAR:
  
                    RESTRICTED RIGHTS LEGEND
  
 Use, reproduction and disclosure by the US Government is
 subject to restrictions as set forth in subparagraphs (a)
 and (c) of the Commercial Computer Software - Restricted
 Rights clause in FAR 52.227-19.
  
 Gaussian, Inc.
 340 Quinnipiac St., Bldg. 40, Wallingford CT 06492
  
  
 ---------------------------------------------------------------
 Warning -- This program may not be used in any manner that
 competes with the business of Gaussian, Inc. or will provide
 assistance to any competitor of Gaussian, Inc.  The licensee
 of this program is prohibited from giving any competitor of
 Gaussian, Inc. access to this program.  By using this program,
 the user acknowledges that Gaussian, Inc. is engaged in the
 business of creating and licensing software in the field of
 computational chemistry and represents and warrants to the
 licensee that it is not a competitor of Gaussian, Inc. and that
 it will not use this program in any manner prohibited above.
 ---------------------------------------------------------------
  

 Cite this work as:
 Gaussian 16, Revision A.03,
 M. J. Frisch, G. W. Trucks, H. B. Schlegel, G. E. Scuseria, 
 M. A. Robb, J. R. Cheeseman, G. Scalmani, V. Barone, 
 G. A. Petersson, H. Nakatsuji, X. Li, M. Caricato, A. V. Marenich, 
 J. Bloino, B. G. Janesko, R. Gomperts, B. Mennucci, H. P. Hratchian, 
 J. V. Ortiz, A. F. Izmaylov, J. L. Sonnenberg, D. Williams-Young, 
 F. Ding, F. Lipparini, F. Egidi, J. Goings, B. Peng, A. Petrone, 
 T. Henderson, D. Ranasinghe, V. G. Zakrzewski, J. Gao, N. Rega, 
 G. Zheng, W. Liang, M. Hada, M. Ehara, K. Toyota, R. Fukuda, 
 J. Hasegawa, M. Ishida, T. Nakajima, Y. Honda, O. Kitao, H. Nakai, 
 T. Vreven, K. Throssell, J. A. Montgomery, Jr., J. E. Peralta, 
 F. Ogliaro, M. J. Bearpark, J. J. Heyd, E. N. Brothers, K. N. Kudin, 
 V. N. Staroverov, T. A. Keith, R. Kobayashi, J. Normand, 
 K. Raghavachari, A. P. Rendell, J. C. Burant, S. S. Iyengar, 
 J. Tomasi, M. Cossi, J. M. Millam, M. Klene, C. Adamo, R. Cammi, 
 J. W. Ochterski, R. L. Martin, K. Morokuma, O. Farkas, 
 J. B. Foresman, and D. J. Fox, Gaussian, Inc., Wallingford CT, 2016.
 
 ******************************************
 Gaussian 16:  ES64L-G16RevA.03 25-Dec-2016
                28-Jan-2023 
 ******************************************
 %nprocshared=28
 Will use up to   28 processors via shared memory.
 %mem=41GB
 -----------------------------
 # wB97XD/aug-cc-pVDZ opt freq
 -----------------------------
 1/18=20,19=15,26=3,38=1/1,3;
 2/9=110,12=2,17=6,18=5,40=1/2;
 3/5=16,7=10,11=2,25=1,30=1,71=1,74=-58/1,2,3;
 4//1;
 5/5=2,38=5/2;
 6/7=2,8=2,9=2,10=2,28=1/1;
 7//1,2,3,16;
 1/18=20,19=15,26=3/3(2);
 2/9=110/2;
 99//99;
 2/9=110/2;
 3/5=16,7=10,11=2,25=1,30=1,71=1,74=-58/1,2,3;
 4/5=5,16=3,69=1/1;
 5/5=2,38=5/2;
 7//1,2,3,16;
 1/18=20,19=15,26=3/3(-5);
 2/9=110/2;
 6/7=2,8=2,9=2,10=2,19=2,28=1/1;
 99/9=1/99;
 ----
 blah
 ----
 Symbolic Z-matrix:
 Charge =  1 Multiplicity = 1
 N                    -1.84945   0.31406   0.62018 
 C                    -1.52055  -0.94738  -0.05678 
 C                    -2.08519  -0.74608  -1.47544 
 C                    -3.27347   0.22479  -1.27449 
 C                    -3.2439    0.56268   0.22208 
 C                    -0.04989  -1.2879   -0.01094 
 C                     0.91295  -0.36374  -0.40093 
 N                     2.21444  -0.67776  -0.36307 
 C                     2.66596  -1.87763   0.03335 
 C                     1.76239  -2.84771   0.42256 
 C                     0.40066  -2.54274   0.40543 
 O                     3.70597   1.45936  -0.74959 
 O                    -0.45024   2.49686  -0.37089 
 H                    -3.52291   1.59878   0.44931 
 H                    -4.2292   -0.22551  -1.55995 
 H                    -3.14064   1.12533  -1.88404 
 H                    -2.37921  -1.70209  -1.92106 
 H                    -1.32159  -0.30102  -2.12496 
 H                    -3.92345  -0.09997   0.78823 
 H                    -2.06699  -1.77599   0.43487 
 H                     0.67476   0.64316  -0.74044 
 H                     3.74393  -2.01848   0.0314 
 H                     2.11982  -3.82257   0.74516 
 H                    -0.32205  -3.29397   0.72519 
 C                    -1.66192   0.27437   2.06623 
 H                     2.89376   0.08856  -0.62308 
 H                    -1.01897   1.77152  -0.00468 
 H                    -1.02977   3.18173  -0.71096 
 H                     2.97443   1.68454  -1.3682 
 H                     4.44795   2.03698  -0.94036 
 O                     1.34785   1.78793  -2.1163 
 H                     1.57639   2.45723  -2.76457 
 H                     0.67009   2.17366  -1.52585 
 H                    -1.97273   1.23207   2.499 
 H                    -0.60215   0.12247   2.30555 
 H                    -2.25508  -0.53156   2.53476 
 
 Add virtual bond connecting atoms H26        and O12        Dist= 3.02D+00.
 Add virtual bond connecting atoms H33        and O13        Dist= 3.10D+00.
 Add virtual bond connecting atoms H27        and N1         Dist= 3.38D+00.
 Add virtual bond connecting atoms O31        and H29        Dist= 3.39D+00.
 Add virtual bond connecting atoms H33        and H21        Dist= 3.25D+00.

 GradGradGradGradGradGradGradGradGradGradGradGradGradGradGradGradGradGrad
 Berny optimization.
 Initialization pass.
                           ----------------------------
                           !    Initial Parameters    !
                           ! (Angstroms and Degrees)  !
 --------------------------                            --------------------------
 ! Name  Definition              Value          Derivative Info.                !
 --------------------------------------------------------------------------------
 ! R1    R(1,2)                  1.4689         estimate D2E/DX2                !
 ! R2    R(1,5)                  1.4713         estimate D2E/DX2                !
 ! R3    R(1,25)                 1.4587         estimate D2E/DX2                !
 ! R4    R(1,27)                 1.7901         estimate D2E/DX2                !
 ! R5    R(2,3)                  1.5401         estimate D2E/DX2                !
 ! R6    R(2,6)                  1.5103         estimate D2E/DX2                !
 ! R7    R(2,20)                 1.1077         estimate D2E/DX2                !
 ! R8    R(3,4)                  1.5476         estimate D2E/DX2                !
 ! R9    R(3,17)                 1.095          estimate D2E/DX2                !
 ! R10   R(3,18)                 1.0968         estimate D2E/DX2                !
 ! R11   R(4,5)                  1.5345         estimate D2E/DX2                !
 ! R12   R(4,15)                 1.0944         estimate D2E/DX2                !
 ! R13   R(4,16)                 1.0955         estimate D2E/DX2                !
 ! R14   R(5,14)                 1.0968         estimate D2E/DX2                !
 ! R15   R(5,19)                 1.1052         estimate D2E/DX2                !
 ! R16   R(6,7)                  1.3904         estimate D2E/DX2                !
 ! R17   R(6,11)                 1.3968         estimate D2E/DX2                !
 ! R18   R(7,8)                  1.3394         estimate D2E/DX2                !
 ! R19   R(7,21)                 1.089          estimate D2E/DX2                !
 ! R20   R(8,9)                  1.3419         estimate D2E/DX2                !
 ! R21   R(8,26)                 1.0566         estimate D2E/DX2                !
 ! R22   R(9,10)                 1.3817         estimate D2E/DX2                !
 ! R23   R(9,22)                 1.0871         estimate D2E/DX2                !
 ! R24   R(10,11)                1.3956         estimate D2E/DX2                !
 ! R25   R(10,23)                1.0873         estimate D2E/DX2                !
 ! R26   R(11,24)                1.0904         estimate D2E/DX2                !
 ! R27   R(12,26)                1.5984         estimate D2E/DX2                !
 ! R28   R(12,29)                0.9841         estimate D2E/DX2                !
 ! R29   R(12,30)                0.9595         estimate D2E/DX2                !
 ! R30   R(13,27)                0.9918         estimate D2E/DX2                !
 ! R31   R(13,28)                0.9595         estimate D2E/DX2                !
 ! R32   R(13,33)                1.6412         estimate D2E/DX2                !
 ! R33   R(21,33)                1.7203         estimate D2E/DX2                !
 ! R34   R(25,34)                1.0959         estimate D2E/DX2                !
 ! R35   R(25,35)                1.097          estimate D2E/DX2                !
 ! R36   R(25,36)                1.1049         estimate D2E/DX2                !
 ! R37   R(29,31)                1.7933         estimate D2E/DX2                !
 ! R38   R(31,32)                0.9594         estimate D2E/DX2                !
 ! R39   R(31,33)                0.9781         estimate D2E/DX2                !
 ! A1    A(2,1,5)              103.4515         estimate D2E/DX2                !
 ! A2    A(2,1,25)             113.8728         estimate D2E/DX2                !
 ! A3    A(2,1,27)             115.7499         estimate D2E/DX2                !
 ! A4    A(5,1,25)             113.2455         estimate D2E/DX2                !
 ! A5    A(5,1,27)             101.986          estimate D2E/DX2                !
 ! A6    A(25,1,27)            107.9723         estimate D2E/DX2                !
 ! A7    A(1,2,3)              103.3076         estimate D2E/DX2                !
 ! A8    A(1,2,6)              113.4329         estimate D2E/DX2                !
 ! A9    A(1,2,20)             109.1107         estimate D2E/DX2                !
 ! A10   A(3,2,6)              114.4841         estimate D2E/DX2                !
 ! A11   A(3,2,20)             109.012          estimate D2E/DX2                !
 ! A12   A(6,2,20)             107.3531         estimate D2E/DX2                !
 ! A13   A(2,3,4)              104.1167         estimate D2E/DX2                !
 ! A14   A(2,3,17)             111.0508         estimate D2E/DX2                !
 ! A15   A(2,3,18)             110.0768         estimate D2E/DX2                !
 ! A16   A(4,3,17)             113.2284         estimate D2E/DX2                !
 ! A17   A(4,3,18)             110.9095         estimate D2E/DX2                !
 ! A18   A(17,3,18)            107.4705         estimate D2E/DX2                !
 ! A19   A(3,4,5)              104.4763         estimate D2E/DX2                !
 ! A20   A(3,4,15)             112.2436         estimate D2E/DX2                !
 ! A21   A(3,4,16)             110.5086         estimate D2E/DX2                !
 ! A22   A(5,4,15)             111.2119         estimate D2E/DX2                !
 ! A23   A(5,4,16)             111.0576         estimate D2E/DX2                !
 ! A24   A(15,4,16)            107.3967         estimate D2E/DX2                !
 ! A25   A(1,5,4)              104.1783         estimate D2E/DX2                !
 ! A26   A(1,5,14)             110.1608         estimate D2E/DX2                !
 ! A27   A(1,5,19)             110.0491         estimate D2E/DX2                !
 ! A28   A(4,5,14)             113.901          estimate D2E/DX2                !
 ! A29   A(4,5,19)             110.8384         estimate D2E/DX2                !
 ! A30   A(14,5,19)            107.6891         estimate D2E/DX2                !
 ! A31   A(2,6,7)              121.0614         estimate D2E/DX2                !
 ! A32   A(2,6,11)             121.7163         estimate D2E/DX2                !
 ! A33   A(7,6,11)             117.2171         estimate D2E/DX2                !
 ! A34   A(6,7,8)              120.6068         estimate D2E/DX2                !
 ! A35   A(6,7,21)             123.4053         estimate D2E/DX2                !
 ! A36   A(8,7,21)             115.9851         estimate D2E/DX2                !
 ! A37   A(7,8,9)              123.0212         estimate D2E/DX2                !
 ! A38   A(7,8,26)             116.5998         estimate D2E/DX2                !
 ! A39   A(9,8,26)             120.3241         estimate D2E/DX2                !
 ! A40   A(8,9,10)             119.4041         estimate D2E/DX2                !
 ! A41   A(8,9,22)             116.677          estimate D2E/DX2                !
 ! A42   A(10,9,22)            123.9177         estimate D2E/DX2                !
 ! A43   A(9,10,11)            118.7658         estimate D2E/DX2                !
 ! A44   A(9,10,23)            119.8756         estimate D2E/DX2                !
 ! A45   A(11,10,23)           121.3547         estimate D2E/DX2                !
 ! A46   A(6,11,10)            120.979          estimate D2E/DX2                !
 ! A47   A(6,11,24)            119.5099         estimate D2E/DX2                !
 ! A48   A(10,11,24)           119.5107         estimate D2E/DX2                !
 ! A49   A(26,12,29)            82.43           estimate D2E/DX2                !
 ! A50   A(26,12,30)           157.6705         estimate D2E/DX2                !
 ! A51   A(29,12,30)           108.1856         estimate D2E/DX2                !
 ! A52   A(27,13,28)           107.8513         estimate D2E/DX2                !
 ! A53   A(27,13,33)           120.4817         estimate D2E/DX2                !
 ! A54   A(28,13,33)           107.6657         estimate D2E/DX2                !
 ! A55   A(7,21,33)            164.9231         estimate D2E/DX2                !
 ! A56   A(1,25,34)            109.3427         estimate D2E/DX2                !
 ! A57   A(1,25,35)            110.1342         estimate D2E/DX2                !
 ! A58   A(1,25,36)            111.7891         estimate D2E/DX2                !
 ! A59   A(34,25,35)           107.9885         estimate D2E/DX2                !
 ! A60   A(34,25,36)           108.5241         estimate D2E/DX2                !
 ! A61   A(35,25,36)           108.9716         estimate D2E/DX2                !
 ! A62   A(12,29,31)           161.7328         estimate D2E/DX2                !
 ! A63   A(29,31,32)            96.0863         estimate D2E/DX2                !
 ! A64   A(29,31,33)           113.5398         estimate D2E/DX2                !
 ! A65   A(32,31,33)           107.3278         estimate D2E/DX2                !
 ! A66   A(13,33,21)            81.707          estimate D2E/DX2                !
 ! A67   A(21,33,31)            85.5766         estimate D2E/DX2                !
 ! A68   L(8,26,12,13,-1)      168.7187         estimate D2E/DX2                !
 ! A69   L(1,27,13,7,-1)       172.0574         estimate D2E/DX2                !
 ! A70   L(13,33,31,21,-1)     167.2836         estimate D2E/DX2                !
 ! A71   L(8,26,12,13,-2)      170.9036         estimate D2E/DX2                !
 ! A72   L(1,27,13,7,-2)       180.5023         estimate D2E/DX2                !
 ! A73   L(13,33,31,21,-2)     180.3587         estimate D2E/DX2                !
 ! D1    D(5,1,2,3)             44.7341         estimate D2E/DX2                !
 ! D2    D(5,1,2,6)            169.2528         estimate D2E/DX2                !
 ! D3    D(5,1,2,20)           -71.1299         estimate D2E/DX2                !
 ! D4    D(25,1,2,3)           168.0755         estimate D2E/DX2                !
 ! D5    D(25,1,2,6)           -67.4058         estimate D2E/DX2                !
 ! D6    D(25,1,2,20)           52.2115         estimate D2E/DX2                !
 ! D7    D(27,1,2,3)           -65.9025         estimate D2E/DX2                !
 ! D8    D(27,1,2,6)            58.6162         estimate D2E/DX2                !
 ! D9    D(27,1,2,20)          178.2336         estimate D2E/DX2                !
 ! D10   D(2,1,5,4)            -42.8579         estimate D2E/DX2                !
 ! D11   D(2,1,5,14)          -165.3999         estimate D2E/DX2                !
 ! D12   D(2,1,5,19)            76.009          estimate D2E/DX2                !
 ! D13   D(25,1,5,4)          -166.6118         estimate D2E/DX2                !
 ! D14   D(25,1,5,14)           70.8462         estimate D2E/DX2                !
 ! D15   D(25,1,5,19)          -47.7449         estimate D2E/DX2                !
 ! D16   D(27,1,5,4)            77.635          estimate D2E/DX2                !
 ! D17   D(27,1,5,14)          -44.907          estimate D2E/DX2                !
 ! D18   D(27,1,5,19)         -163.498          estimate D2E/DX2                !
 ! D19   D(2,1,13,28)          120.6802         estimate D2E/DX2                !
 ! D20   D(2,1,13,33)           -4.0492         estimate D2E/DX2                !
 ! D21   D(5,1,13,28)            8.785          estimate D2E/DX2                !
 ! D22   D(5,1,13,33)         -115.9443         estimate D2E/DX2                !
 ! D23   D(25,1,13,28)        -112.0354         estimate D2E/DX2                !
 ! D24   D(25,1,13,33)         123.2353         estimate D2E/DX2                !
 ! D25   D(2,1,25,34)         -177.3142         estimate D2E/DX2                !
 ! D26   D(2,1,25,35)           64.1766         estimate D2E/DX2                !
 ! D27   D(2,1,25,36)          -57.1194         estimate D2E/DX2                !
 ! D28   D(5,1,25,34)          -59.4768         estimate D2E/DX2                !
 ! D29   D(5,1,25,35)         -177.986          estimate D2E/DX2                !
 ! D30   D(5,1,25,36)           60.718          estimate D2E/DX2                !
 ! D31   D(27,1,25,34)          52.6682         estimate D2E/DX2                !
 ! D32   D(27,1,25,35)         -65.8411         estimate D2E/DX2                !
 ! D33   D(27,1,25,36)         172.8629         estimate D2E/DX2                !
 ! D34   D(1,2,3,4)            -28.8466         estimate D2E/DX2                !
 ! D35   D(1,2,3,17)          -151.0248         estimate D2E/DX2                !
 ! D36   D(1,2,3,18)            90.0829         estimate D2E/DX2                !
 ! D37   D(6,2,3,4)           -152.6772         estimate D2E/DX2                !
 ! D38   D(6,2,3,17)            85.1446         estimate D2E/DX2                !
 ! D39   D(6,2,3,18)           -33.7477         estimate D2E/DX2                !
 ! D40   D(20,2,3,4)            87.0876         estimate D2E/DX2                !
 ! D41   D(20,2,3,17)          -35.0906         estimate D2E/DX2                !
 ! D42   D(20,2,3,18)         -153.9829         estimate D2E/DX2                !
 ! D43   D(1,2,6,7)            -51.2782         estimate D2E/DX2                !
 ! D44   D(1,2,6,11)           129.5784         estimate D2E/DX2                !
 ! D45   D(3,2,6,7)             66.9532         estimate D2E/DX2                !
 ! D46   D(3,2,6,11)          -112.1903         estimate D2E/DX2                !
 ! D47   D(20,2,6,7)          -171.8937         estimate D2E/DX2                !
 ! D48   D(20,2,6,11)            8.9628         estimate D2E/DX2                !
 ! D49   D(2,3,4,5)              3.1285         estimate D2E/DX2                !
 ! D50   D(2,3,4,15)          -117.4898         estimate D2E/DX2                !
 ! D51   D(2,3,4,16)           122.6514         estimate D2E/DX2                !
 ! D52   D(17,3,4,5)           123.8582         estimate D2E/DX2                !
 ! D53   D(17,3,4,15)            3.2399         estimate D2E/DX2                !
 ! D54   D(17,3,4,16)         -116.6189         estimate D2E/DX2                !
 ! D55   D(18,3,4,5)          -115.2312         estimate D2E/DX2                !
 ! D56   D(18,3,4,15)          124.1505         estimate D2E/DX2                !
 ! D57   D(18,3,4,16)            4.2916         estimate D2E/DX2                !
 ! D58   D(3,4,5,1)             23.6642         estimate D2E/DX2                !
 ! D59   D(3,4,5,14)           143.7162         estimate D2E/DX2                !
 ! D60   D(3,4,5,19)           -94.663          estimate D2E/DX2                !
 ! D61   D(15,4,5,1)           144.9678         estimate D2E/DX2                !
 ! D62   D(15,4,5,14)          -94.9802         estimate D2E/DX2                !
 ! D63   D(15,4,5,19)           26.6406         estimate D2E/DX2                !
 ! D64   D(16,4,5,1)           -95.488          estimate D2E/DX2                !
 ! D65   D(16,4,5,14)           24.564          estimate D2E/DX2                !
 ! D66   D(16,4,5,19)          146.1849         estimate D2E/DX2                !
 ! D67   D(2,6,7,8)           -179.6573         estimate D2E/DX2                !
 ! D68   D(2,6,7,21)             0.9685         estimate D2E/DX2                !
 ! D69   D(11,6,7,8)            -0.4766         estimate D2E/DX2                !
 ! D70   D(11,6,7,21)         -179.8508         estimate D2E/DX2                !
 ! D71   D(2,6,11,10)          179.02           estimate D2E/DX2                !
 ! D72   D(2,6,11,24)           -1.2003         estimate D2E/DX2                !
 ! D73   D(7,6,11,10)           -0.1549         estimate D2E/DX2                !
 ! D74   D(7,6,11,24)          179.6247         estimate D2E/DX2                !
 ! D75   D(6,7,8,9)              0.527          estimate D2E/DX2                !
 ! D76   D(6,7,8,26)          -176.783          estimate D2E/DX2                !
 ! D77   D(21,7,8,9)           179.9458         estimate D2E/DX2                !
 ! D78   D(21,7,8,26)            2.6358         estimate D2E/DX2                !
 ! D79   D(6,7,21,33)         -148.894          estimate D2E/DX2                !
 ! D80   D(8,7,21,33)           31.7053         estimate D2E/DX2                !
 ! D81   D(7,8,9,10)             0.0866         estimate D2E/DX2                !
 ! D82   D(7,8,9,22)          -179.5226         estimate D2E/DX2                !
 ! D83   D(26,8,9,10)          177.3            estimate D2E/DX2                !
 ! D84   D(26,8,9,22)           -2.3092         estimate D2E/DX2                !
 ! D85   D(7,8,12,29)          -36.5731         estimate D2E/DX2                !
 ! D86   D(7,8,12,30)         -163.4294         estimate D2E/DX2                !
 ! D87   D(9,8,12,29)          153.5592         estimate D2E/DX2                !
 ! D88   D(9,8,12,30)           26.7029         estimate D2E/DX2                !
 ! D89   D(8,9,10,11)           -0.7102         estimate D2E/DX2                !
 ! D90   D(8,9,10,23)         -179.9994         estimate D2E/DX2                !
 ! D91   D(22,9,10,11)         178.8691         estimate D2E/DX2                !
 ! D92   D(22,9,10,23)          -0.4202         estimate D2E/DX2                !
 ! D93   D(9,10,11,6)            0.7429         estimate D2E/DX2                !
 ! D94   D(9,10,11,24)        -179.0367         estimate D2E/DX2                !
 ! D95   D(23,10,11,6)        -179.9787         estimate D2E/DX2                !
 ! D96   D(23,10,11,24)          0.2416         estimate D2E/DX2                !
 ! D97   D(26,12,29,31)         35.38           estimate D2E/DX2                !
 ! D98   D(30,12,29,31)       -164.8105         estimate D2E/DX2                !
 ! D99   D(27,13,33,21)        -29.1857         estimate D2E/DX2                !
 ! D100  D(28,13,33,21)       -153.2953         estimate D2E/DX2                !
 ! D101  D(7,21,33,13)        -167.4661         estimate D2E/DX2                !
 ! D102  D(7,21,33,31)          12.1752         estimate D2E/DX2                !
 ! D103  D(12,29,31,32)        169.6419         estimate D2E/DX2                !
 ! D104  D(12,29,31,33)         57.7309         estimate D2E/DX2                !
 ! D105  D(29,31,33,21)        -76.4984         estimate D2E/DX2                !
 ! D106  D(32,31,33,21)        178.6054         estimate D2E/DX2                !
 --------------------------------------------------------------------------------
 Trust Radius=3.00D-01 FncErr=1.00D-07 GrdErr=1.00D-06 EigMax=2.50D+02 EigMin=1.00D-04
 Number of steps in this run=    216 maximum allowed number of steps=    216.
 GradGradGradGradGradGradGradGradGradGradGradGradGradGradGradGradGradGrad

                          Input orientation:                          
 ---------------------------------------------------------------------
 Center     Atomic      Atomic             Coordinates (Angstroms)
 Number     Number       Type             X           Y           Z
 ---------------------------------------------------------------------
      1          7           0       -1.849449    0.314064    0.620184
      2          6           0       -1.520545   -0.947381   -0.056776
      3          6           0       -2.085190   -0.746077   -1.475440
      4          6           0       -3.273471    0.224794   -1.274489
      5          6           0       -3.243904    0.562681    0.222076
      6          6           0       -0.049892   -1.287898   -0.010935
      7          6           0        0.912948   -0.363743   -0.400925
      8          7           0        2.214443   -0.677764   -0.363069
      9          6           0        2.665964   -1.877626    0.033348
     10          6           0        1.762393   -2.847709    0.422559
     11          6           0        0.400660   -2.542741    0.405428
     12          8           0        3.705968    1.459355   -0.749585
     13          8           0       -0.450239    2.496856   -0.370890
     14          1           0       -3.522911    1.598775    0.449311
     15          1           0       -4.229200   -0.225513   -1.559951
     16          1           0       -3.140644    1.125329   -1.884040
     17          1           0       -2.379214   -1.702094   -1.921055
     18          1           0       -1.321590   -0.301020   -2.124963
     19          1           0       -3.923452   -0.099969    0.788232
     20          1           0       -2.066995   -1.775991    0.434872
     21          1           0        0.674759    0.643158   -0.740444
     22          1           0        3.743934   -2.018475    0.031399
     23          1           0        2.119815   -3.822569    0.745159
     24          1           0       -0.322049   -3.293966    0.725189
     25          6           0       -1.661920    0.274369    2.066233
     26          1           0        2.893757    0.088564   -0.623077
     27          1           0       -1.018966    1.771520   -0.004678
     28          1           0       -1.029768    3.181732   -0.710959
     29          1           0        2.974427    1.684538   -1.368204
     30          1           0        4.447954    2.036983   -0.940364
     31          8           0        1.347847    1.787930   -2.116300
     32          1           0        1.576391    2.457232   -2.764570
     33          1           0        0.670090    2.173658   -1.525845
     34          1           0       -1.972725    1.232071    2.498997
     35          1           0       -0.602146    0.122467    2.305550
     36          1           0       -2.255082   -0.531561    2.534763
 ---------------------------------------------------------------------
                    Distance matrix (angstroms):
                    1          2          3          4          5
     1  N    0.000000
     2  C    1.468910   0.000000
     3  C    2.360320   1.540115   0.000000
     4  C    2.371833   2.435071   1.547573   0.000000
     5  C    1.471328   2.308249   2.436601   1.534519   0.000000
     6  C    2.490582   1.510256   2.565304   3.778395   3.698736
     7  C    3.022073   2.526056   3.207740   4.316896   4.304162
     8  N    4.297177   3.757212   4.441720   5.635823   5.628024
     9  C    5.053398   4.289561   5.111781   6.434866   6.396660
    10  C    4.804297   3.823440   4.777358   6.138418   6.060855
    11  C    3.642862   2.539652   3.597932   4.897000   4.791671
    12  O    5.835291   5.795585   6.239255   7.107196   7.074523
    13  O    2.775716   3.620358   3.796012   3.734889   3.449233
    14  H    2.116638   3.278491   3.357088   2.218452   1.096801
    15  H    3.272208   3.180792   2.207919   1.094387   2.183501
    16  H    2.931974   3.203083   2.187029   1.095518   2.182421
    17  H    3.286859   2.186879   1.094985   2.220505   3.235723
    18  H    2.862306   2.175951   1.096832   2.193086   3.154340
    19  H    2.121592   2.684419   2.986783   2.186953   1.105180
    20  H    2.109502   1.107664   2.170333   2.894934   2.626744
    21  H    2.886388   2.795814   3.176084   4.006089   4.035944
    22  H    6.088788   5.373058   6.153718   7.482083   7.451752
    23  H    5.734318   4.707656   5.663738   7.039010   6.947914
    24  H    3.919421   2.748513   3.800417   5.009119   4.864575
    25  C    1.458698   2.453534   3.709975   3.709444   2.446776
    26  H    4.908620   4.569457   5.119869   6.203031   6.213691
    27  H    1.790065   2.765270   3.104556   3.014560   2.542255
    28  H    3.266089   4.209322   4.138361   3.754364   3.554206
    29  H    5.394596   5.371370   5.614188   6.416842   6.515765
    30  H    6.712752   6.731280   7.121355   7.938266   7.917671
    31  O    4.459072   4.466680   4.314816   4.950618   5.296547
    32  H    5.271253   5.339901   5.032913   5.543039   5.978680
    33  H    3.796263   4.086310   4.014843   4.406010   4.579282
    34  H    2.094725   3.389167   4.440931   4.116521   2.692276
    35  H    2.105453   2.751112   4.153273   4.468012   3.393160
    36  H    2.131955   2.725532   4.019528   4.014921   2.742928
                    6          7          8          9         10
     6  C    0.000000
     7  C    1.390401   0.000000
     8  N    2.371387   1.339377   0.000000
     9  C    2.779499   2.356586   1.341897   0.000000
    10  C    2.430083   2.751321   2.351642   1.381661   0.000000
    11  C    1.396777   2.379218   2.712662   2.390068   1.395570
    12  O    4.711633   3.353537   2.634638   3.581904   4.868491
    13  O    3.822853   3.168944   4.144732   5.386114   5.838637
    14  H    4.539446   4.924553   6.225739   7.110595   6.906980
    15  H    4.582000   5.272963   6.569444   7.267143   6.834138
    16  H    4.345680   4.566024   5.851620   6.812548   6.719018
    17  H    3.040700   3.865270   4.957646   5.413347   4.894678
    18  H    2.657115   2.823013   3.968594   4.800477   4.741987
    19  H    4.129686   4.987428   6.271610   6.866609   6.325553
    20  H    2.122659   3.401920   4.491495   4.751047   3.976549
    21  H    2.187757   1.088971   2.063462   3.304240   3.836884
    22  H    3.863761   3.307495   2.071824   1.087135   2.183378
    23  H    3.421091   3.838426   3.335704   2.141905   1.087278
    24  H    2.154126   3.373360   3.802974   3.378296   2.153051
    25  C    3.058421   3.622706   4.672714   5.243499   4.916803
    26  H    3.306726   2.043902   1.056565   2.085350   3.315877
    27  H    3.209234   2.906656   4.072146   5.186176   5.408860
    28  H    4.629015   4.054708   5.053874   6.309479   6.740563
    29  H    4.452422   3.062806   2.677376   3.840379   5.021665
    30  H    5.670034   4.307058   3.562540   4.409962   5.738468
    31  O    3.980823   2.785919   3.147134   4.449125   5.301585
    32  H    4.924763   3.739635   4.000314   5.273187   6.191509
    33  H    3.846518   2.786185   3.444950   4.777813   5.495774
    34  H    4.043178   4.391273   5.419526   6.104677   5.908241
    35  H    2.767710   3.139573   3.961700   4.454640   4.237764
    36  H    3.451882   4.322365   5.328739   5.682047   5.095690
                   11         12         13         14         15
    11  C    0.000000
    12  O    5.317508   0.000000
    13  O    5.169549   4.300451   0.000000
    14  H    5.705128   7.328948   3.304632   0.000000
    15  H    5.537857   8.152445   4.806839   2.804283   0.000000
    16  H    5.589028   6.947997   3.377719   2.411391   1.764869
    17  H    3.721144   6.956762   4.873924   4.221660   2.394397
    18  H    3.793987   5.501538   3.415280   3.883545   2.962961
    19  H    4.981126   7.937532   4.488905   1.777929   2.371330
    20  H    2.584201   6.722909   4.639006   3.675452   3.325422
    21  H    3.396779   3.139186   2.199633   4.466448   5.047276
    22  H    3.404737   3.564643   6.175851   8.128111   8.325742
    23  H    2.169993   5.713918   6.912733   7.830636   7.652603
    24  H    1.090364   6.402651   5.895035   5.853250   5.468372
    25  C    3.866344   6.176346   3.513857   2.798531   4.471020
    26  H    3.767907   1.598361   4.128653   6.678651   7.191168
    27  H    4.560304   4.793468   0.991803   2.550625   4.088107
    28  H    6.005167   5.039372   0.959456   3.172970   4.750418
    29  H    5.257369   0.984149   3.658255   6.747304   7.455018
    30  H    6.258244   0.959476   4.952583   8.102957   8.988647
    31  O    5.100096   2.745288   2.604255   5.508395   5.955412
    32  H    6.035806   3.096937   3.136638   6.088420   6.507927
    33  H    5.103609   3.213933   1.641194   4.670438   5.455294
    34  H    4.925971   6.546182   3.486244   2.595912   4.867370
    35  H    3.423363   5.448024   3.581079   3.762443   5.312128
    36  H    3.953717   7.091178   4.568543   3.239573   4.556039
                   16         17         18         19         20
    16  H    0.000000
    17  H    2.928390   0.000000
    18  H    2.324107   1.767245   0.000000
    19  H    3.042233   3.505954   3.911114   0.000000
    20  H    3.866230   2.377674   3.046953   2.525935   0.000000
    21  H    4.012182   4.027505   2.606487   4.902309   3.840685
    22  H    7.807037   6.434681   5.767069   7.939916   5.829964
    23  H    7.685494   5.643259   5.699314   7.097935   4.670561
    24  H    5.855145   3.710605   4.252079   4.814114   2.330959
    25  C    4.302954   4.507703   4.244175   2.624489   2.651302
    26  H    6.251312   5.717991   4.491836   6.964314   5.404154
    27  H    2.907074   4.193897   2.980371   3.545027   3.725104
    28  H    3.171862   5.209328   3.770163   4.624991   5.193052
    29  H    6.162215   6.358961   4.792795   7.444153   6.375129
    30  H    7.701198   7.845551   6.336968   8.811075   7.672979
    31  O    4.543075   5.109733   3.389643   6.307698   5.556182
    32  H    4.979931   5.801579   4.051585   7.029221   6.436681
    33  H    3.968500   4.947312   3.232609   5.623608   5.189969
    34  H    4.537228   5.320847   4.914809   2.916570   3.649375
    35  H    5.000237   4.934692   4.508479   3.658252   3.041276
    36  H    4.801596   4.608673   4.757899   2.453589   2.448168
                   21         22         23         24         25
    21  H    0.000000
    22  H    4.135199   0.000000
    23  H    4.923202   2.530212   0.000000
    24  H    4.317714   4.317458   2.498503   0.000000
    25  C    3.670628   6.214575   5.729892   4.040627   0.000000
    26  H    2.290262   2.364477   4.215213   4.858059   5.293496
    27  H    2.164083   6.086919   6.458176   5.165031   2.635057
    28  H    3.057882   7.097991   7.816674   6.670686   4.070033
    29  H    2.601351   4.032783   5.960276   6.327286   5.939667
    30  H    4.027371   4.229268   6.526528   7.344795   7.033988
    31  O    1.912205   4.984231   6.345201   6.057085   5.370581
    32  H    2.863719   5.705053   7.214527   6.989904   6.211940
    33  H    1.720264   5.426555   6.573728   5.995532   4.684933
    34  H    4.224922   7.023908   6.736039   5.133823   1.095937
    35  H    3.343604   5.351991   5.040556   3.774654   1.097027
    36  H    4.548727   6.668278   5.759613   3.826494   1.104937
                   26         27         28         29         30
    26  H    0.000000
    27  H    4.303970   0.000000
    28  H    4.996945   1.577228   0.000000
    29  H    1.763194   4.220658   4.325175   0.000000
    30  H    2.512476   5.552764   5.600760   1.574340   0.000000
    31  O    2.739963   3.171911   3.093658   1.793349   3.324984
    32  H    3.454277   3.850075   3.396216   2.121650   3.427858
    33  H    3.179198   2.308371   2.137702   2.360944   3.825405
    34  H    5.893861   2.732956   3.872230   6.295576   7.328179
    35  H    4.560630   2.868844   4.317556   5.359888   6.301177
    36  H    6.071824   3.644300   5.081796   6.891444   7.975250
                   31         32         33         34         35
    31  O    0.000000
    32  H    0.959401   0.000000
    33  H    0.978150   1.560844   0.000000
    34  H    5.712805   6.465476   4.906161   0.000000
    35  H    5.111653   5.991933   4.528307   1.774015   0.000000
    36  H    6.324043   7.189992   5.688882   1.786450   1.792342
                   36
    36  H    0.000000
 Stoichiometry    C10H21N2O3(1+)
 Framework group  C1[X(C10H21N2O3)]
 Deg. of freedom   102
 Full point group                 C1      NOp   1
 Largest Abelian subgroup         C1      NOp   1
 Largest concise Abelian subgroup C1      NOp   1
                         Standard orientation:                         
 ---------------------------------------------------------------------
 Center     Atomic      Atomic             Coordinates (Angstroms)
 Number     Number       Type             X           Y           Z
 ---------------------------------------------------------------------
      1          7           0       -1.900753   -0.021406    0.739105
      2          6           0       -1.405468   -0.947001   -0.288349
      3          6           0       -1.849744   -0.284754   -1.605924
      4          6           0       -3.128725    0.497701   -1.222580
      5          6           0       -3.267735    0.287581    0.291116
      6          6           0        0.077769   -1.214292   -0.191202
      7          6           0        0.992091   -0.169052   -0.122623
      8          7           0        2.306038   -0.416487   -0.043551
      9          6           0        2.817367   -1.657120   -0.035892
     10          6           0        1.965764   -2.742310   -0.114121
     11          6           0        0.590875   -2.513391   -0.184067
     12          8           0        3.642959    1.785496    0.508927
     13          8           0       -0.602667    2.432069    0.733602
     14          1           0       -3.652562    1.163267    0.827822
     15          1           0       -4.012466    0.133711   -1.755681
     16          1           0       -3.015321    1.560320   -1.463701
     17          1           0       -2.019681   -1.034811   -2.385364
     18          1           0       -1.068677    0.394995   -1.967749
     19          1           0       -3.939392   -0.562351    0.510012
     20          1           0       -1.924210   -1.919734   -0.180567
     21          1           0        0.703240    0.880905   -0.118971
     22          1           0        3.898781   -1.738864    0.039761
     23          1           0        2.371804   -3.750910   -0.108517
     24          1           0       -0.093127   -3.361273   -0.230242
     25          6           0       -1.846704   -0.559459    2.093866
     26          1           0        2.940131    0.422477    0.058403
     27          1           0       -1.140421    1.599052    0.757634
     28          1           0       -1.203138    3.165617    0.585622
     29          1           0        2.956241    2.180549   -0.074940
     30          1           0        4.348552    2.426542    0.617522
     31          8           0        1.403885    2.466503   -0.926129
     32          1           0        1.635235    3.330989   -1.271949
     33          1           0        0.643938    2.588067   -0.322407
     34          1           0       -2.275746    0.169079    2.791169
     35          1           0       -0.804994   -0.737376    2.388235
     36          1           0       -2.411525   -1.504980    2.182487
 ---------------------------------------------------------------------
 Rotational constants (GHZ):           0.6822515           0.4215561           0.3184226
 Standard basis: Aug-CC-pVDZ (5D, 7F)
 There are   564 symmetry adapted cartesian basis functions of A   symmetry.
 There are   534 symmetry adapted basis functions of A   symmetry.
   534 basis functions,   876 primitive gaussians,   564 cartesian basis functions
    59 alpha electrons       59 beta electrons
       nuclear repulsion energy      1118.1634395282 Hartrees.
 NAtoms=   36 NActive=   36 NUniq=   36 SFac= 1.00D+00 NAtFMM=   60 NAOKFM=F Big=F
 Integral buffers will be    131072 words long.
 Raffenetti 2 integral format.
 Two-electron integral symmetry is turned on.
 Nuclear repulsion after empirical dispersion term =     1118.1342719922 Hartrees.
 One-electron integrals computed using PRISM.
 NBasis=   534 RedAO= T EigKep=  1.61D-06  NBF=   534
 NBsUse=   534 1.00D-06 EigRej= -1.00D+00 NBFU=   534
 ExpMin= 2.97D-02 ExpMax= 1.17D+04 ExpMxC= 4.01D+02 IAcc=3 IRadAn=         5 AccDes= 0.00D+00
 Harris functional with IExCor= 4639 and IRadAn=       5 diagonalized for initial guess.
 HarFok:  IExCor= 4639 AccDes= 0.00D+00 IRadAn=         5 IDoV= 1 UseB2=F ITyADJ=14
 ICtDFT=  3500011 ScaDFX=  1.000000  1.000000  1.000000  1.000000
 FoFCou: FMM=F IPFlag=           0 FMFlag=      100000 FMFlg1=           0
         NFxFlg=           0 DoJE=T BraDBF=F KetDBF=T FulRan=T
         wScrn=  0.000000 ICntrl=       500 IOpCl=  0 I1Cent=   200000004 NGrid=           0
         NMat0=    1 NMatS0=      1 NMatT0=    0 NMatD0=    1 NMtDS0=    0 NMtDT0=    0
 Petite list used in FoFCou.
 Requested convergence on RMS density matrix=1.00D-08 within 128 cycles.
 Requested convergence on MAX density matrix=1.00D-06.
 Requested convergence on             energy=1.00D-06.
 No special actions if energy rises.
 SCF Done:  E(RwB97XD) =  -728.581927036     A.U. after   16 cycles
            NFock= 16  Conv=0.17D-08     -V/T= 2.0061

 **********************************************************************

            Population analysis using the SCF density.

 **********************************************************************

 Orbital symmetries:
       Occupied  (A) (A) (A) (A) (A) (A) (A) (A) (A) (A) (A) (A)
                 (A) (A) (A) (A) (A) (A) (A) (A) (A) (A) (A) (A)
                 (A) (A) (A) (A) (A) (A) (A) (A) (A) (A) (A) (A)
                 (A) (A) (A) (A) (A) (A) (A) (A) (A) (A) (A) (A)
                 (A) (A) (A) (A) (A) (A) (A) (A) (A) (A) (A)
       Virtual   (A) (A) (A) (A) (A) (A) (A) (A) (A) (A) (A) (A)
                 (A) (A) (A) (A) (A) (A) (A) (A) (A) (A) (A) (A)
                 (A) (A) (A) (A) (A) (A) (A) (A) (A) (A) (A) (A)
                 (A) (A) (A) (A) (A) (A) (A) (A) (A) (A) (A) (A)
                 (A) (A) (A) (A) (A) (A) (A) (A) (A) (A) (A) (A)
                 (A) (A) (A) (A) (A) (A) (A) (A) (A) (A) (A) (A)
                 (A) (A) (A) (A) (A) (A) (A) (A) (A) (A) (A) (A)
                 (A) (A) (A) (A) (A) (A) (A) (A) (A) (A) (A) (A)
                 (A) (A) (A) (A) (A) (A) (A) (A) (A) (A) (A) (A)
                 (A) (A) (A) (A) (A) (A) (A) (A) (A) (A) (A) (A)
                 (A) (A) (A) (A) (A) (A) (A) (A) (A) (A) (A) (A)
                 (A) (A) (A) (A) (A) (A) (A) (A) (A) (A) (A) (A)
                 (A) (A) (A) (A) (A) (A) (A) (A) (A) (A) (A) (A)
                 (A) (A) (A) (A) (A) (A) (A) (A) (A) (A) (A) (A)
                 (A) (A) (A) (A) (A) (A) (A) (A) (A) (A) (A) (A)
                 (A) (A) (A) (A) (A) (A) (A) (A) (A) (A) (A) (A)
                 (A) (A) (A) (A) (A) (A) (A) (A) (A) (A) (A) (A)
                 (A) (A) (A) (A) (A) (A) (A) (A) (A) (A) (A) (A)
                 (A) (A) (A) (A) (A) (A) (A) (A) (A) (A) (A) (A)
                 (A) (A) (A) (A) (A) (A) (A) (A) (A) (A) (A) (A)
                 (A) (A) (A) (A) (A) (A) (A) (A) (A) (A) (A) (A)
                 (A) (A) (A) (A) (A) (A) (A) (A) (A) (A) (A) (A)
                 (A) (A) (A) (A) (A) (A) (A) (A) (A) (A) (A) (A)
                 (A) (A) (A) (A) (A) (A) (A) (A) (A) (A) (A) (A)
                 (A) (A) (A) (A) (A) (A) (A) (A) (A) (A) (A) (A)
                 (A) (A) (A) (A) (A) (A) (A) (A) (A) (A) (A) (A)
                 (A) (A) (A) (A) (A) (A) (A) (A) (A) (A) (A) (A)
                 (A) (A) (A) (A) (A) (A) (A) (A) (A) (A) (A) (A)
                 (A) (A) (A) (A) (A) (A) (A) (A) (A) (A) (A) (A)
                 (A) (A) (A) (A) (A) (A) (A) (A) (A) (A) (A) (A)
                 (A) (A) (A) (A) (A) (A) (A) (A) (A) (A) (A) (A)
                 (A) (A) (A) (A) (A) (A) (A) (A) (A) (A) (A) (A)
                 (A) (A) (A) (A) (A) (A) (A) (A) (A) (A) (A) (A)
                 (A) (A) (A) (A) (A) (A) (A) (A) (A) (A) (A) (A)
                 (A) (A) (A) (A) (A) (A) (A) (A) (A) (A) (A) (A)
                 (A) (A) (A) (A) (A) (A) (A) (A) (A) (A) (A) (A)
                 (A) (A) (A) (A) (A) (A) (A) (A) (A) (A) (A) (A)
                 (A) (A) (A) (A) (A) (A) (A) (A) (A) (A) (A) (A)
                 (A) (A) (A) (A) (A) (A) (A) (A) (A) (A) (A) (A)
                 (A) (A) (A) (A) (A) (A) (A)
 The electronic state is 1-A.
 Alpha  occ. eigenvalues --  -19.40165 -19.39743 -19.39430 -14.68139 -14.58606
 Alpha  occ. eigenvalues --  -10.51375 -10.50543 -10.48095 -10.47493 -10.47132
 Alpha  occ. eigenvalues --  -10.46815 -10.43881 -10.43462 -10.41884 -10.41063
 Alpha  occ. eigenvalues --   -1.26581  -1.25277  -1.24268  -1.23045  -1.17966
 Alpha  occ. eigenvalues --   -1.08622  -1.04990  -1.00975  -0.96362  -0.91007
 Alpha  occ. eigenvalues --   -0.90094  -0.89210  -0.83407  -0.80342  -0.80103
 Alpha  occ. eigenvalues --   -0.77881  -0.75979  -0.75129  -0.74977  -0.72841
 Alpha  occ. eigenvalues --   -0.71267  -0.70038  -0.68636  -0.68334  -0.66062
 Alpha  occ. eigenvalues --   -0.64778  -0.64229  -0.63804  -0.62279  -0.61830
 Alpha  occ. eigenvalues --   -0.59752  -0.58835  -0.58634  -0.57741  -0.56848
 Alpha  occ. eigenvalues --   -0.56104  -0.54570  -0.54291  -0.53430  -0.53279
 Alpha  occ. eigenvalues --   -0.52718  -0.52406  -0.49580  -0.45046
 Alpha virt. eigenvalues --   -0.14144  -0.11186  -0.06719  -0.05763  -0.05153
 Alpha virt. eigenvalues --   -0.04173  -0.03918  -0.03398  -0.03151  -0.02188
 Alpha virt. eigenvalues --   -0.02062  -0.01657  -0.01285  -0.00719  -0.00139
 Alpha virt. eigenvalues --    0.00329   0.00500   0.00807   0.01270   0.01694
 Alpha virt. eigenvalues --    0.02089   0.02249   0.02518   0.02667   0.03213
 Alpha virt. eigenvalues --    0.03439   0.03547   0.04195   0.04311   0.04893
 Alpha virt. eigenvalues --    0.05216   0.05265   0.05559   0.05961   0.06163
 Alpha virt. eigenvalues --    0.06364   0.06644   0.06923   0.07180   0.07409
 Alpha virt. eigenvalues --    0.07878   0.08076   0.08308   0.08885   0.09078
 Alpha virt. eigenvalues --    0.09461   0.09749   0.09954   0.10320   0.10745
 Alpha virt. eigenvalues --    0.11061   0.11304   0.11947   0.12070   0.12188
 Alpha virt. eigenvalues --    0.12485   0.13028   0.13210   0.13493   0.13866
 Alpha virt. eigenvalues --    0.14163   0.14639   0.14808   0.14962   0.15630
 Alpha virt. eigenvalues --    0.16077   0.16104   0.16188   0.16696   0.17016
 Alpha virt. eigenvalues --    0.17168   0.17468   0.17675   0.18036   0.18549
 Alpha virt. eigenvalues --    0.18593   0.18688   0.19072   0.19650   0.19868
 Alpha virt. eigenvalues --    0.20477   0.21091   0.21621   0.21792   0.22001
 Alpha virt. eigenvalues --    0.22094   0.22533   0.23239   0.23618   0.23942
 Alpha virt. eigenvalues --    0.24423   0.24512   0.24791   0.25267   0.25809
 Alpha virt. eigenvalues --    0.26294   0.26717   0.27133   0.27461   0.27728
 Alpha virt. eigenvalues --    0.27836   0.28380   0.28448   0.29270   0.30098
 Alpha virt. eigenvalues --    0.30175   0.30735   0.30861   0.31013   0.31662
 Alpha virt. eigenvalues --    0.31942   0.32650   0.32813   0.33182   0.33432
 Alpha virt. eigenvalues --    0.33568   0.33780   0.34637   0.35674   0.35798
 Alpha virt. eigenvalues --    0.36145   0.36623   0.37227   0.37436   0.37776
 Alpha virt. eigenvalues --    0.37894   0.38492   0.38680   0.38936   0.39816
 Alpha virt. eigenvalues --    0.40494   0.40949   0.41572   0.42027   0.42147
 Alpha virt. eigenvalues --    0.42866   0.43395   0.43832   0.44312   0.44474
 Alpha virt. eigenvalues --    0.44946   0.45616   0.46014   0.46149   0.46249
 Alpha virt. eigenvalues --    0.47008   0.47239   0.47496   0.47856   0.48698
 Alpha virt. eigenvalues --    0.49328   0.49577   0.49797   0.50362   0.50984
 Alpha virt. eigenvalues --    0.51292   0.51935   0.52199   0.52406   0.52537
 Alpha virt. eigenvalues --    0.53469   0.53834   0.54002   0.54472   0.54910
 Alpha virt. eigenvalues --    0.55088   0.55952   0.56209   0.56532   0.56895
 Alpha virt. eigenvalues --    0.57323   0.57515   0.58407   0.58798   0.59181
 Alpha virt. eigenvalues --    0.59454   0.59572   0.60015   0.60242   0.60882
 Alpha virt. eigenvalues --    0.61433   0.62323   0.62685   0.62875   0.63615
 Alpha virt. eigenvalues --    0.64219   0.64642   0.64802   0.65021   0.65379
 Alpha virt. eigenvalues --    0.66067   0.66875   0.67372   0.67576   0.68336
 Alpha virt. eigenvalues --    0.68882   0.69234   0.69703   0.69954   0.70097
 Alpha virt. eigenvalues --    0.70942   0.71232   0.71534   0.71867   0.72843
 Alpha virt. eigenvalues --    0.73284   0.73521   0.74377   0.74708   0.74834
 Alpha virt. eigenvalues --    0.75681   0.76161   0.76912   0.77134   0.77984
 Alpha virt. eigenvalues --    0.78890   0.79404   0.80133   0.80556   0.80995
 Alpha virt. eigenvalues --    0.81425   0.81915   0.82860   0.83202   0.83651
 Alpha virt. eigenvalues --    0.84172   0.85039   0.85564   0.85867   0.86234
 Alpha virt. eigenvalues --    0.87290   0.87958   0.89102   0.89790   0.89995
 Alpha virt. eigenvalues --    0.90173   0.92274   0.92557   0.93620   0.93906
 Alpha virt. eigenvalues --    0.95337   0.95747   0.96633   0.96934   0.98393
 Alpha virt. eigenvalues --    0.99167   0.99479   1.00638   1.01385   1.02432
 Alpha virt. eigenvalues --    1.02829   1.04409   1.05341   1.06133   1.07082
 Alpha virt. eigenvalues --    1.07273   1.08397   1.08800   1.08957   1.09541
 Alpha virt. eigenvalues --    1.11280   1.12509   1.13223   1.13529   1.14533
 Alpha virt. eigenvalues --    1.15747   1.16883   1.17475   1.19103   1.19513
 Alpha virt. eigenvalues --    1.20900   1.21608   1.22311   1.23001   1.24471
 Alpha virt. eigenvalues --    1.25265   1.25621   1.27621   1.28394   1.28907
 Alpha virt. eigenvalues --    1.29092   1.30052   1.31874   1.32284   1.33715
 Alpha virt. eigenvalues --    1.34629   1.35488   1.36788   1.37508   1.39325
 Alpha virt. eigenvalues --    1.40151   1.40336   1.41192   1.42033   1.42332
 Alpha virt. eigenvalues --    1.43887   1.44899   1.46126   1.46639   1.47187
 Alpha virt. eigenvalues --    1.47547   1.49378   1.51100   1.51492   1.52879
 Alpha virt. eigenvalues --    1.53844   1.54652   1.55388   1.56348   1.56969
 Alpha virt. eigenvalues --    1.58147   1.58709   1.59238   1.60712   1.61444
 Alpha virt. eigenvalues --    1.61968   1.62851   1.63943   1.64278   1.65654
 Alpha virt. eigenvalues --    1.66324   1.66604   1.66735   1.67493   1.68940
 Alpha virt. eigenvalues --    1.69456   1.71123   1.71551   1.71887   1.73361
 Alpha virt. eigenvalues --    1.74375   1.74557   1.76197   1.77076   1.78247
 Alpha virt. eigenvalues --    1.78555   1.79675   1.80126   1.81729   1.82273
 Alpha virt. eigenvalues --    1.82773   1.83407   1.84888   1.85940   1.86280
 Alpha virt. eigenvalues --    1.87223   1.87744   1.88761   1.89220   1.90495
 Alpha virt. eigenvalues --    1.90721   1.92124   1.92889   1.93604   1.94163
 Alpha virt. eigenvalues --    1.95200   1.95615   1.96746   1.97600   1.98816
 Alpha virt. eigenvalues --    1.99363   1.99501   2.00740   2.02305   2.02706
 Alpha virt. eigenvalues --    2.03333   2.04380   2.04786   2.06613   2.07057
 Alpha virt. eigenvalues --    2.09636   2.10326   2.10537   2.11662   2.12301
 Alpha virt. eigenvalues --    2.12455   2.13742   2.14700   2.15398   2.16225
 Alpha virt. eigenvalues --    2.17132   2.18169   2.18461   2.21228   2.22068
 Alpha virt. eigenvalues --    2.23698   2.24111   2.24778   2.25174   2.27054
 Alpha virt. eigenvalues --    2.27905   2.28044   2.29418   2.29990   2.31828
 Alpha virt. eigenvalues --    2.33648   2.34169   2.35363   2.36480   2.37547
 Alpha virt. eigenvalues --    2.38259   2.39172   2.41764   2.42546   2.43144
 Alpha virt. eigenvalues --    2.44698   2.45348   2.46858   2.47717   2.48317
 Alpha virt. eigenvalues --    2.50328   2.51713   2.53198   2.53700   2.55243
 Alpha virt. eigenvalues --    2.55796   2.57868   2.58324   2.59828   2.60602
 Alpha virt. eigenvalues --    2.61758   2.62731   2.63738   2.67001   2.68424
 Alpha virt. eigenvalues --    2.69044   2.70066   2.72503   2.73071   2.74648
 Alpha virt. eigenvalues --    2.76331   2.76750   2.77453   2.79142   2.82191
 Alpha virt. eigenvalues --    2.82369   2.85469   2.85963   2.86951   2.89970
 Alpha virt. eigenvalues --    2.90901   2.91435   2.92848   2.94957   2.97746
 Alpha virt. eigenvalues --    3.00611   3.04075   3.06060   3.11490   3.12801
 Alpha virt. eigenvalues --    3.20272   3.23850   3.24461   3.29557   3.36252
 Alpha virt. eigenvalues --    3.37626   3.38493   3.41820   3.43891   3.46873
 Alpha virt. eigenvalues --    3.48069   3.51209   3.53707   3.55301   3.64594
 Alpha virt. eigenvalues --    3.68294   3.72747   3.84440   3.91976   3.94210
 Alpha virt. eigenvalues --    4.00797   4.11576   4.15487   4.36714   5.00066
          Condensed to atoms (all electrons):
               1          2          3          4          5          6
     1  N   15.191068  -6.750949  -1.035708  -0.296295  -0.197277   2.364962
     2  C   -6.750949  30.281271  -0.430547   0.130155   0.184913 -10.943687
     3  C   -1.035708  -0.430547   8.333588  -0.900426   0.635976  -0.329458
     4  C   -0.296295   0.130155  -0.900426   6.115478   0.088696   0.180037
     5  C   -0.197277   0.184913   0.635976   0.088696   5.752613  -0.700776
     6  C    2.364962 -10.943687  -0.329458   0.180037  -0.700776  26.566531
     7  C    0.778093  -4.694508  -1.117251  -0.037509  -0.360834  -3.870772
     8  N   -0.121388   1.208326   0.092315   0.020797   0.064683   0.145154
     9  C    0.058898  -0.270670  -0.024693   0.020213  -0.004890   0.405327
    10  C   -0.144410  -0.243160   0.014993  -0.030059  -0.052024  -0.005853
    11  C   -0.566460  -0.136436  -0.192577   0.018495   0.049214 -10.220827
    12  O    0.001204   0.001527  -0.004560  -0.000004   0.000005  -0.148279
    13  O    0.009776   0.015901   0.014904  -0.028845  -0.006862  -0.004426
    14  H   -1.117713   0.711284   0.109310   0.076535  -0.106885  -0.261510
    15  H   -0.125755  -0.136230   0.267078  -0.253004   0.181360   0.042711
    16  H    0.149278   0.163068   0.256550  -0.349708  -0.051191  -0.103313
    17  H    0.446347  -0.075688  -1.217597   0.181721  -0.258609   0.520092
    18  H   -0.126126  -0.137402  -0.002940   0.297133   0.088157  -0.024669
    19  H   -0.218072   0.064444  -0.030888   0.028741  -0.356628   0.207770
    20  H   -0.322437  -3.026656   0.705075  -0.069665   0.007118   1.310511
    21  H    0.022053  -0.504921  -0.118825  -0.054880  -0.002389  -0.951340
    22  H    0.006292  -0.063674   0.001754   0.000451  -0.000547  -0.309058
    23  H   -0.000970   0.133575  -0.001787   0.000154   0.000025   0.124776
    24  H    0.046568  -0.382772  -0.017817  -0.006854  -0.015336   1.307339
    25  C    1.220356  -1.200696  -0.255948   0.025717  -0.264980   0.680422
    26  H   -0.005270   0.030086  -0.022529   0.001928  -0.004125  -0.350267
    27  H   -0.406985   0.674690   0.113365   0.012051  -0.018751  -0.239211
    28  H    0.000819  -0.072822   0.007343  -0.004545   0.010783   0.028787
    29  H   -0.001993   0.010186   0.006394   0.001052   0.001029  -0.002860
    30  H    0.000076  -0.002058  -0.000249  -0.000089  -0.000011   0.002278
    31  O    0.033556  -0.078331   0.015521  -0.011078  -0.001921  -0.071258
    32  H    0.000992   0.002923  -0.006459   0.003852  -0.002770  -0.000851
    33  H   -0.088229   0.185000   0.026472   0.008694   0.026559  -0.029567
    34  H   -0.246406   0.141051  -0.069725   0.073642   0.051761  -0.018243
    35  H    0.121662   0.013263   0.090879  -0.043273  -0.091326   0.003030
    36  H   -0.488908  -0.234032   0.023438  -0.003195   0.057599   0.204604
               7          8          9         10         11         12
     1  N    0.778093  -0.121388   0.058898  -0.144410  -0.566460   0.001204
     2  C   -4.694508   1.208326  -0.270670  -0.243160  -0.136436   0.001527
     3  C   -1.117251   0.092315  -0.024693   0.014993  -0.192577  -0.004560
     4  C   -0.037509   0.020797   0.020213  -0.030059   0.018495  -0.000004
     5  C   -0.360834   0.064683  -0.004890  -0.052024   0.049214   0.000005
     6  C   -3.870772   0.145154   0.405327  -0.005853 -10.220827  -0.148279
     7  C   21.136122  -2.343568  -3.398923   1.479955  -2.681808   0.093267
     8  N   -2.343568   8.217515   0.611248  -0.186707  -0.169447  -0.171865
     9  C   -3.398923   0.611248  10.525790  -2.525910   1.352065   0.002608
    10  C    1.479955  -0.186707  -2.525910  11.756336  -4.447531  -0.002458
    11  C   -2.681808  -0.169447   1.352065  -4.447531  23.838889   0.031864
    12  O    0.093267  -0.171865   0.002608  -0.002458   0.031864   7.957627
    13  O    0.007726  -0.000570  -0.012488   0.014924  -0.020017   0.000169
    14  H   -0.038715   0.003109  -0.000028  -0.001766   0.025999   0.000063
    15  H    0.004981  -0.002851   0.000785  -0.000634   0.002098  -0.000009
    16  H   -0.004434   0.005549   0.001426  -0.003015   0.006823   0.000074
    17  H    0.344524  -0.012517   0.007382  -0.002793  -0.081161  -0.000018
    18  H   -0.282297   0.023058   0.014720  -0.017550   0.065764  -0.003795
    19  H    0.046812  -0.000487  -0.000520   0.000021   0.012952  -0.000041
    20  H   -0.209636   0.002582   0.036781  -0.018751   0.007206   0.000337
    21  H   -0.496833  -0.092297  -0.398455   0.190696  -0.120232   0.127494
    22  H    0.434602  -0.130259  -0.634577   0.126201   0.251696   0.015565
    23  H   -0.357756   0.011179   0.396697  -1.143749   0.598579   0.000042
    24  H    0.329746  -0.093362  -0.219650   0.780475  -2.604222   0.000184
    25  C    0.081572  -0.043841   0.006557   0.045864  -0.275155   0.000187
    26  H    0.792791  -0.129110  -0.707219   0.013933  -0.080804  -0.083002
    27  H   -0.176867   0.034354   0.006324  -0.013809   0.050745  -0.005660
    28  H    0.027893  -0.003831   0.000234   0.002488  -0.007991   0.001081
    29  H   -0.078865   0.024041   0.017022  -0.006026   0.016070   0.387953
    30  H    0.034248  -0.007256  -0.012456   0.003182  -0.002515   0.328020
    31  O    0.129497  -0.065775  -0.028873   0.011462  -0.007449  -0.017068
    32  H    0.046172  -0.008478  -0.003246   0.001371  -0.003213  -0.000236
    33  H   -0.234459   0.045441   0.012047  -0.017913   0.026990  -0.015144
    34  H   -0.028222  -0.001525   0.001687   0.003642   0.006487  -0.000160
    35  H    0.038386   0.002294  -0.037259   0.058498  -0.025872   0.000672
    36  H    0.025350  -0.003344   0.015353  -0.014288  -0.013463   0.000074
              13         14         15         16         17         18
     1  N    0.009776  -1.117713  -0.125755   0.149278   0.446347  -0.126126
     2  C    0.015901   0.711284  -0.136230   0.163068  -0.075688  -0.137402
     3  C    0.014904   0.109310   0.267078   0.256550  -1.217597  -0.002940
     4  C   -0.028845   0.076535  -0.253004  -0.349708   0.181721   0.297133
     5  C   -0.006862  -0.106885   0.181360  -0.051191  -0.258609   0.088157
     6  C   -0.004426  -0.261510   0.042711  -0.103313   0.520092  -0.024669
     7  C    0.007726  -0.038715   0.004981  -0.004434   0.344524  -0.282297
     8  N   -0.000570   0.003109  -0.002851   0.005549  -0.012517   0.023058
     9  C   -0.012488  -0.000028   0.000785   0.001426   0.007382   0.014720
    10  C    0.014924  -0.001766  -0.000634  -0.003015  -0.002793  -0.017550
    11  C   -0.020017   0.025999   0.002098   0.006823  -0.081161   0.065764
    12  O    0.000169   0.000063  -0.000009   0.000074  -0.000018  -0.003795
    13  O    7.946432   0.013324  -0.005260   0.006793   0.002724  -0.007580
    14  H    0.013324   2.899815   0.125955  -0.317181  -0.042932   0.064014
    15  H   -0.005260   0.125955   2.114197  -0.627439  -0.328830   0.220397
    16  H    0.006793  -0.317181  -0.627439   2.247079   0.195908  -0.463595
    17  H    0.002724  -0.042932  -0.328830   0.195908   2.720968  -0.778538
    18  H   -0.007580   0.064014   0.220397  -0.463595  -0.778538   2.483417
    19  H    0.003020  -0.579022  -0.249572   0.195755   0.060978  -0.063082
    20  H    0.001064   0.095133   0.070588  -0.070613  -0.350608   0.246615
    21  H   -0.005091  -0.058315  -0.018073   0.049319   0.149641  -0.348240
    22  H    0.000234  -0.000095   0.000028   0.000059   0.000742  -0.001874
    23  H    0.000294   0.000062  -0.000100   0.000026  -0.000934  -0.000503
    24  H   -0.000902  -0.003734   0.002677  -0.000661   0.010331   0.000944
    25  C   -0.009574  -0.181370  -0.016186   0.016911   0.079270  -0.036461
    26  H   -0.006752   0.000938   0.000404  -0.000330  -0.001284  -0.001899
    27  H    0.113354   0.112590   0.002146  -0.009266  -0.035769   0.038629
    28  H    0.383692  -0.006870  -0.000317   0.001414   0.003199   0.001728
    29  H   -0.000073   0.000293   0.000018  -0.000068  -0.000998   0.005517
    30  H    0.000083  -0.000024  -0.000006   0.000015   0.000052  -0.000491
    31  O   -0.010619  -0.000907   0.000130  -0.003406  -0.001255   0.013472
    32  H   -0.011681  -0.000436   0.000094   0.000875   0.000673  -0.005363
    33  H   -0.023493   0.009864   0.001980  -0.002611  -0.010074   0.023989
    34  H    0.012523   0.005899  -0.003502   0.010010   0.003098  -0.006630
    35  H    0.015103   0.007791   0.001489  -0.009101  -0.004781   0.015859
    36  H   -0.011775   0.016024   0.003355  -0.001798   0.008858  -0.001296
              19         20         21         22         23         24
     1  N   -0.218072  -0.322437   0.022053   0.006292  -0.000970   0.046568
     2  C    0.064444  -3.026656  -0.504921  -0.063674   0.133575  -0.382772
     3  C   -0.030888   0.705075  -0.118825   0.001754  -0.001787  -0.017817
     4  C    0.028741  -0.069665  -0.054880   0.000451   0.000154  -0.006854
     5  C   -0.356628   0.007118  -0.002389  -0.000547   0.000025  -0.015336
     6  C    0.207770   1.310511  -0.951340  -0.309058   0.124776   1.307339
     7  C    0.046812  -0.209636  -0.496833   0.434602  -0.357756   0.329746
     8  N   -0.000487   0.002582  -0.092297  -0.130259   0.011179  -0.093362
     9  C   -0.000520   0.036781  -0.398455  -0.634577   0.396697  -0.219650
    10  C    0.000021  -0.018751   0.190696   0.126201  -1.143749   0.780475
    11  C    0.012952   0.007206  -0.120232   0.251696   0.598579  -2.604222
    12  O   -0.000041   0.000337   0.127494   0.015565   0.000042   0.000184
    13  O    0.003020   0.001064  -0.005091   0.000234   0.000294  -0.000902
    14  H   -0.579022   0.095133  -0.058315  -0.000095   0.000062  -0.003734
    15  H   -0.249572   0.070588  -0.018073   0.000028  -0.000100   0.002677
    16  H    0.195755  -0.070613   0.049319   0.000059   0.000026  -0.000661
    17  H    0.060978  -0.350608   0.149641   0.000742  -0.000934   0.010331
    18  H   -0.063082   0.246615  -0.348240  -0.001874  -0.000503   0.000944
    19  H    2.468460  -0.102777   0.034888   0.000061  -0.000152   0.001834
    20  H   -0.102777   3.684006  -0.033446   0.001068   0.000854  -0.170429
    21  H    0.034888  -0.033446   5.141332   0.084014  -0.017885  -0.001381
    22  H    0.000061   0.001068   0.084014   2.255672  -0.113288  -0.006862
    23  H   -0.000152   0.000854  -0.017885  -0.113288   2.060392  -0.133459
    24  H    0.001834  -0.170429  -0.001381  -0.006862  -0.133459   3.035437
    25  C   -0.034903  -0.053380   0.113076   0.002145  -0.004119   0.030894
    26  H   -0.000431  -0.004474  -0.111726  -0.251564   0.012457   0.008581
    27  H    0.006661   0.004498  -0.196659  -0.002069   0.000919  -0.005100
    28  H    0.002372   0.000778   0.030118   0.000366  -0.000050   0.000344
    29  H    0.000026   0.001056  -0.024547  -0.000527   0.000121  -0.000369
    30  H   -0.000002  -0.000045  -0.001238   0.001561  -0.000110  -0.000038
    31  O   -0.000039  -0.000360  -0.066522   0.001894  -0.000239   0.001053
    32  H   -0.000039  -0.000166  -0.010566   0.000340  -0.000038   0.000125
    33  H   -0.002313   0.001536  -0.005778  -0.005840   0.000417  -0.001026
    34  H    0.010809   0.009861   0.018224   0.000535  -0.000691   0.003091
    35  H   -0.002675   0.013079  -0.055472  -0.004201   0.001314   0.000271
    36  H    0.045264   0.099453   0.024772   0.000501  -0.000497   0.004367
              25         26         27         28         29         30
     1  N    1.220356  -0.005270  -0.406985   0.000819  -0.001993   0.000076
     2  C   -1.200696   0.030086   0.674690  -0.072822   0.010186  -0.002058
     3  C   -0.255948  -0.022529   0.113365   0.007343   0.006394  -0.000249
     4  C    0.025717   0.001928   0.012051  -0.004545   0.001052  -0.000089
     5  C   -0.264980  -0.004125  -0.018751   0.010783   0.001029  -0.000011
     6  C    0.680422  -0.350267  -0.239211   0.028787  -0.002860   0.002278
     7  C    0.081572   0.792791  -0.176867   0.027893  -0.078865   0.034248
     8  N   -0.043841  -0.129110   0.034354  -0.003831   0.024041  -0.007256
     9  C    0.006557  -0.707219   0.006324   0.000234   0.017022  -0.012456
    10  C    0.045864   0.013933  -0.013809   0.002488  -0.006026   0.003182
    11  C   -0.275155  -0.080804   0.050745  -0.007991   0.016070  -0.002515
    12  O    0.000187  -0.083002  -0.005660   0.001081   0.387953   0.328020
    13  O   -0.009574  -0.006752   0.113354   0.383692  -0.000073   0.000083
    14  H   -0.181370   0.000938   0.112590  -0.006870   0.000293  -0.000024
    15  H   -0.016186   0.000404   0.002146  -0.000317   0.000018  -0.000006
    16  H    0.016911  -0.000330  -0.009266   0.001414  -0.000068   0.000015
    17  H    0.079270  -0.001284  -0.035769   0.003199  -0.000998   0.000052
    18  H   -0.036461  -0.001899   0.038629   0.001728   0.005517  -0.000491
    19  H   -0.034903  -0.000431   0.006661   0.002372   0.000026  -0.000002
    20  H   -0.053380  -0.004474   0.004498   0.000778   0.001056  -0.000045
    21  H    0.113076  -0.111726  -0.196659   0.030118  -0.024547  -0.001238
    22  H    0.002145  -0.251564  -0.002069   0.000366  -0.000527   0.001561
    23  H   -0.004119   0.012457   0.000919  -0.000050   0.000121  -0.000110
    24  H    0.030894   0.008581  -0.005100   0.000344  -0.000369  -0.000038
    25  C    4.779037  -0.002961  -0.133733   0.008803  -0.000696   0.000154
    26  H   -0.002961   1.735041   0.007490  -0.002313  -0.005603   0.006780
    27  H   -0.133733   0.007490   0.624482  -0.130950   0.003219  -0.000217
    28  H    0.008803  -0.002313  -0.130950   0.599724  -0.001115   0.000061
    29  H   -0.000696  -0.005603   0.003219  -0.001115   0.539633  -0.120674
    30  H    0.000154   0.006780  -0.000217   0.000061  -0.120674   0.568985
    31  O   -0.004388   0.007270  -0.012164  -0.000897   0.042685  -0.003810
    32  H    0.000696   0.003428   0.000023   0.000719   0.004440   0.000811
    33  H   -0.017710   0.011347   0.037708  -0.015929   0.002634   0.000949
    34  H    0.187583  -0.001571   0.012396   0.001371  -0.000098   0.000017
    35  H    0.072217   0.002756   0.028805  -0.004316   0.001003  -0.000131
    36  H    0.228022  -0.000096  -0.028573   0.005037  -0.000089   0.000013
              31         32         33         34         35         36
     1  N    0.033556   0.000992  -0.088229  -0.246406   0.121662  -0.488908
     2  C   -0.078331   0.002923   0.185000   0.141051   0.013263  -0.234032
     3  C    0.015521  -0.006459   0.026472  -0.069725   0.090879   0.023438
     4  C   -0.011078   0.003852   0.008694   0.073642  -0.043273  -0.003195
     5  C   -0.001921  -0.002770   0.026559   0.051761  -0.091326   0.057599
     6  C   -0.071258  -0.000851  -0.029567  -0.018243   0.003030   0.204604
     7  C    0.129497   0.046172  -0.234459  -0.028222   0.038386   0.025350
     8  N   -0.065775  -0.008478   0.045441  -0.001525   0.002294  -0.003344
     9  C   -0.028873  -0.003246   0.012047   0.001687  -0.037259   0.015353
    10  C    0.011462   0.001371  -0.017913   0.003642   0.058498  -0.014288
    11  C   -0.007449  -0.003213   0.026990   0.006487  -0.025872  -0.013463
    12  O   -0.017068  -0.000236  -0.015144  -0.000160   0.000672   0.000074
    13  O   -0.010619  -0.011681  -0.023493   0.012523   0.015103  -0.011775
    14  H   -0.000907  -0.000436   0.009864   0.005899   0.007791   0.016024
    15  H    0.000130   0.000094   0.001980  -0.003502   0.001489   0.003355
    16  H   -0.003406   0.000875  -0.002611   0.010010  -0.009101  -0.001798
    17  H   -0.001255   0.000673  -0.010074   0.003098  -0.004781   0.008858
    18  H    0.013472  -0.005363   0.023989  -0.006630   0.015859  -0.001296
    19  H   -0.000039  -0.000039  -0.002313   0.010809  -0.002675   0.045264
    20  H   -0.000360  -0.000166   0.001536   0.009861   0.013079   0.099453
    21  H   -0.066522  -0.010566  -0.005778   0.018224  -0.055472   0.024772
    22  H    0.001894   0.000340  -0.005840   0.000535  -0.004201   0.000501
    23  H   -0.000239  -0.000038   0.000417  -0.000691   0.001314  -0.000497
    24  H    0.001053   0.000125  -0.001026   0.003091   0.000271   0.004367
    25  C   -0.004388   0.000696  -0.017710   0.187583   0.072217   0.228022
    26  H    0.007270   0.003428   0.011347  -0.001571   0.002756  -0.000096
    27  H   -0.012164   0.000023   0.037708   0.012396   0.028805  -0.028573
    28  H   -0.000897   0.000719  -0.015929   0.001371  -0.004316   0.005037
    29  H    0.042685   0.004440   0.002634  -0.000098   0.001003  -0.000089
    30  H   -0.003810   0.000811   0.000949   0.000017  -0.000131   0.000013
    31  O    7.948976   0.271441   0.342085  -0.000053  -0.001158  -0.000366
    32  H    0.271441   0.649271  -0.129694   0.000074  -0.000188   0.000077
    33  H    0.342085  -0.129694   0.506396  -0.001753   0.004520  -0.002301
    34  H   -0.000053   0.000074  -0.001753   2.004265  -0.653375  -0.323473
    35  H   -0.001158  -0.000188   0.004520  -0.653375   2.017931  -0.388569
    36  H   -0.000366   0.000077  -0.002301  -0.323473  -0.388569   1.938481
 Mulliken charges:
               1
     1  N   -1.190648
     2  C    1.433575
     3  C    1.065031
     4  C    0.803884
     5  C    1.297641
     6  C    0.491894
     7  C    0.581522
     8  N    0.076833
     9  C    0.786694
    10  C    0.374362
    11  C    1.295245
    12  O   -0.497720
    13  O   -0.396032
    14  H   -0.560498
    15  H   -0.274703
    16  H   -0.289200
    17  H   -0.532121
    18  H   -0.293084
    19  H   -0.549225
    20  H   -0.865753
    21  H   -1.290514
    22  H   -0.661349
    23  H   -0.565556
    24  H   -0.900285
    25  C    0.956615
    26  H    0.138097
    27  H    0.531336
    28  H    0.132791
    29  H    0.180213
    30  H    0.204133
    31  O   -0.431105
    32  H    0.195025
    33  H    0.329207
    34  H   -0.202599
    35  H   -0.189124
    36  H   -0.184580
 Sum of Mulliken charges =   1.00000
 Mulliken charges with hydrogens summed into heavy atoms:
               1
     1  N   -1.190648
     2  C    0.567822
     3  C    0.239825
     4  C    0.239981
     5  C    0.187918
     6  C    0.491894
     7  C   -0.708993
     8  N    0.214930
     9  C    0.125345
    10  C   -0.191194
    11  C    0.394960
    12  O   -0.113374
    13  O    0.268095
    25  C    0.380311
    31  O    0.093126
 Electronic spatial extent (au):  <R**2>=           3748.2227
 Charge=              1.0000 electrons
 Dipole moment (field-independent basis, Debye):
    X=              2.4644    Y=             -0.5830    Z=             -0.6658  Tot=              2.6185
 Quadrupole moment (field-independent basis, Debye-Ang):
   XX=            -48.6671   YY=            -53.3697   ZZ=            -89.7606
   XY=             -0.8264   XZ=             -1.5680   YZ=             -2.5644
 Traceless Quadrupole moment (field-independent basis, Debye-Ang):
   XX=             15.2653   YY=             10.5628   ZZ=            -25.8281
   XY=             -0.8264   XZ=             -1.5680   YZ=             -2.5644
 Octapole moment (field-independent basis, Debye-Ang**2):
  XXX=             91.9152  YYY=             61.2746  ZZZ=              5.5300  XYY=             57.2931
  XXY=             33.4442  XXZ=              4.4050  XZZ=             -9.0515  YZZ=             11.1429
  YYZ=            -13.9029  XYZ=             -5.3082
 Hexadecapole moment (field-independent basis, Debye-Ang**3):
 XXXX=          -2078.3932 YYYY=           -986.6159 ZZZZ=           -566.7599 XXXY=            127.4082
 XXXZ=             36.4722 YYYX=             60.3126 YYYZ=            -36.5153 ZZZX=            -11.6885
 ZZZY=             -8.4798 XXYY=           -428.5996 XXZZ=           -524.5389 YYZZ=           -344.9644
 XXYZ=             18.0264 YYXZ=            -21.5261 ZZXY=             26.4070
 N-N= 1.118134271992D+03 E-N=-3.919228461890D+03  KE= 7.241545406060D+02
 Calling FoFJK, ICntrl=      2127 FMM=F ISym2X=0 I1Cent= 0 IOpClX= 0 NMat=1 NMatS=1 NMatT=0.
 ***** Axes restored to original set *****
 -------------------------------------------------------------------
 Center     Atomic                   Forces (Hartrees/Bohr)
 Number     Number              X              Y              Z
 -------------------------------------------------------------------
      1        7           0.000293340    0.000575139   -0.000143384
      2        6           0.000214956   -0.000053001   -0.000115720
      3        6           0.000257145    0.000163681   -0.000149767
      4        6           0.000012845   -0.000178857    0.000145809
      5        6          -0.000149922    0.000085189   -0.000074235
      6        6           0.001088214   -0.001413176    0.000569317
      7        6          -0.004949516   -0.000787294    0.003813616
      8        7           0.000636670    0.007097421   -0.002913693
      9        6           0.001286967   -0.000539741   -0.000139695
     10        6           0.000572483    0.000610121   -0.000170160
     11        6          -0.000830259    0.000073441   -0.000344575
     12        8          -0.006715826    0.001835402   -0.006572232
     13        8          -0.001824702    0.003760707   -0.000145152
     14        1          -0.000025165   -0.000015144    0.000054853
     15        1          -0.000026702    0.000060967   -0.000011486
     16        1          -0.000022734    0.000054359   -0.000060139
     17        1          -0.000001265    0.000040148    0.000026390
     18        1           0.000274420   -0.000027206    0.000017877
     19        1           0.000021517    0.000010549   -0.000016545
     20        1          -0.000011833    0.000095393    0.000040642
     21        1           0.000897566   -0.013048284    0.006133371
     22        1          -0.000090504   -0.000050473   -0.000084803
     23        1           0.000105080    0.000109993   -0.000023981
     24        1           0.000060263   -0.000114498    0.000020960
     25        6          -0.000133590    0.000150836    0.000237187
     26        1          -0.000923813   -0.014703209    0.007876656
     27        1          -0.000476577   -0.002009926   -0.000168617
     28        1          -0.002529631    0.000965387    0.002693808
     29        1           0.004373817    0.008240463    0.003926785
     30        1           0.001025546   -0.002131449   -0.000302438
     31        8           0.015425850    0.002441012   -0.012612866
     32        1          -0.003961367    0.001288670   -0.003178751
     33        1          -0.003886813    0.007515073    0.001711567
     34        1           0.000150300   -0.000030304    0.000008627
     35        1          -0.000158317   -0.000009540    0.000036214
     36        1           0.000021558   -0.000061848   -0.000085442
 -------------------------------------------------------------------
 Cartesian Forces:  Max     0.015425850 RMS     0.003517004

 GradGradGradGradGradGradGradGradGradGradGradGradGradGradGradGradGradGrad
 Berny optimization.
 FormGI is forming the generalized inverse of G from B-inverse, IUseBI=4.
 Internal  Forces:  Max     0.015134778 RMS     0.002086067
 Search for a local minimum.
 Step number   1 out of a maximum of  216
 All quantities printed in internal units (Hartrees-Bohrs-Radians)
 Mixed Optimization -- RFO/linear search
 Second derivative matrix not updated -- first step.
 ITU=  0
     Eigenvalues ---    0.00259   0.00314   0.00329   0.00359   0.00653
     Eigenvalues ---    0.00801   0.00915   0.00971   0.01064   0.01475
     Eigenvalues ---    0.01528   0.01923   0.02016   0.02047   0.02139
     Eigenvalues ---    0.02182   0.02241   0.02306   0.02394   0.02450
     Eigenvalues ---    0.02782   0.03206   0.03568   0.04060   0.04190
     Eigenvalues ---    0.04343   0.04597   0.04789   0.04967   0.05051
     Eigenvalues ---    0.05389   0.05541   0.05601   0.05853   0.05883
     Eigenvalues ---    0.06060   0.06128   0.06367   0.06413   0.06911
     Eigenvalues ---    0.06976   0.07141   0.07381   0.08603   0.08825
     Eigenvalues ---    0.08866   0.09044   0.10311   0.10796   0.11120
     Eigenvalues ---    0.11568   0.11966   0.12736   0.13358   0.14538
     Eigenvalues ---    0.15516   0.15999   0.16000   0.16000   0.16000
     Eigenvalues ---    0.16000   0.16000   0.17462   0.18972   0.19634
     Eigenvalues ---    0.21264   0.21785   0.22811   0.26242   0.26802
     Eigenvalues ---    0.28680   0.29983   0.31145   0.32849   0.33085
     Eigenvalues ---    0.33116   0.33142   0.33681   0.34013   0.34035
     Eigenvalues ---    0.34038   0.34135   0.34183   0.34243   0.34311
     Eigenvalues ---    0.34771   0.35129   0.35146   0.37128   0.37552
     Eigenvalues ---    0.40453   0.42973   0.45949   0.47692   0.48340
     Eigenvalues ---    0.48560   0.49497   0.53582   0.55586   0.55591
     Eigenvalues ---    0.55602   0.55761
 RFO step:  Lambda=-1.04941652D-02 EMin= 2.58833614D-03
 Linear search not attempted -- first point.
 Maximum step size (   0.300) exceeded in Quadratic search.
    -- Step size scaled by   0.832
 Iteration  1 RMS(Cart)=  0.04948635 RMS(Int)=  0.00196259
 Iteration  2 RMS(Cart)=  0.00245703 RMS(Int)=  0.00048008
 Iteration  3 RMS(Cart)=  0.00000842 RMS(Int)=  0.00048005
 Iteration  4 RMS(Cart)=  0.00000002 RMS(Int)=  0.00048005
[...]
 001590,0.00004766,-0.00005356,-0.00009729,-0.00020755,0.00050150,0.000
 94712,0.00043587,-0.00081920,-0.00224285,-0.00493579,-0.00234288,0.001
 22349,0.00292369,-0.00198753,-0.00054662,0.00220621,-0.01321457,-0.000
 40822,0.00039446,-0.00001279,-0.07397123,-0.15228386,0.64738071,-0.000
 15360,-0.00006632,-0.00013987,0.00007125,0.00000278,0.00004579,0.00001
 915,0.00001156,0.00003245,-0.00013647,-0.00031868,0.00007897,0.0001374
 7,0.00003403,0.00014434,0.00013604,-0.00014630,0.00003938,-0.00001063,
 -0.00039592,0.00014004,-0.00000703,-0.00008960,0.00004599,0.00002476,-
 0.00001230,0.00001834,0.00002082,0.00000264,0.00000058,-0.00007377,0.0
 0001594,0.00001624,-0.00344670,0.00056550,0.00067925,-0.00142676,0.000
 68628,0.00143645,-0.00002047,-0.00000895,0.00002120,0.00000856,0.00005
 780,-0.00003424,-0.00004899,0.00011126,0.00004164,-0.00001087,0.000048
 26,-0.00002614,0.00004328,-0.00009006,0.00002198,-0.00001837,0.0000257
 7,-0.00009023,-0.00001945,-0.00000180,-0.00003126,-0.00013228,0.000580
 86,-0.00015830,0.00000577,-0.00000406,0.00000850,-0.00000300,-0.000000
 40,-0.00000377,0.00000779,-0.00001971,0.00001257,-0.00000599,0.0000202
 5,0.00003973,0.00007832,-0.00004284,-0.00000726,0.00019696,0.00013808,
 0.00014830,-0.00011681,-0.00010020,0.00049017,0.00430450,0.00098607,-0
 .00328515,-0.00047664,0.00059065,-0.00023608,-0.07198976,0.12054615,-0
 .11565718,0.06549311,0.00002285,0.00010569,-0.00013521,0.00014096,-0.0
 0003915,0.00002575,-0.00011103,-0.00001144,0.00012284,-0.00007411,-0.0
 0019089,0.00003515,0.00000494,0.00006698,0.00008249,0.00030777,-0.0002
 7691,0.00014287,-0.00042056,-0.00016208,0.00000862,-0.00002522,0.00001
 096,-0.00002052,0.00002152,-0.00000781,0.00002378,0.00002611,-0.000003
 76,0.00000490,-0.00014582,-0.00002474,0.00004516,-0.00034324,0.0009281
 1,-0.00013585,0.00094913,0.00003319,-0.00149419,-0.00001659,-0.0000155
 8,-0.00002280,0.00002738,0.00006368,-0.00002716,-0.00013809,0.00015813
 ,0.00003188,0.00002828,0.00003049,-0.00004003,0.00008261,-0.00015042,0
 .00001299,0.00000685,0.00001781,-0.00005901,-0.00002401,0.00002497,-0.
 00004029,0.00048866,0.00034425,-0.00004560,0.00000639,-0.00000837,0.00
 001355,-0.00000495,0.00000135,-0.00000135,0.00001692,-0.00003057,0.000
 01981,-0.00000214,-0.00000435,0.00008853,-0.00009663,0.00001461,0.0000
 1389,0.00010137,-0.00022210,-0.00000927,0.00013328,0.00023340,-0.00024
 539,0.00025648,-0.00141554,0.00039929,0.00016066,-0.00003554,-0.000053
 99,0.11065410,-0.22228175,0.25038696,-0.10862746,0.21693965,-0.0001974
 0,-0.00018443,-0.00000005,0.00006048,0.00006770,0.00003764,-0.00005145
 ,0.00000174,0.00001072,0.00001305,0.00005302,-0.00008982,0.00008733,0.
 00003047,0.00005092,0.00007040,-0.00018073,0.00015837,-0.00004771,-0.0
 0047660,0.00027333,-0.00009463,-0.00009223,0.00004989,-0.00004544,-0.0
 0002737,0.00003012,0.00009518,-0.00000202,0.00000460,-0.00011762,0.000
 04500,-0.00003408,0.00207280,-0.00109009,0.00007060,0.00074762,-0.0013
 0840,-0.00050988,0.00002142,0.00000431,-0.00001963,-0.00005411,-0.0000
 5035,0.00002387,0.00007431,0.00000750,0.00011368,-0.00002277,-0.000032
 70,0.00001346,0.00005084,0.00003684,0.00006894,-0.00003084,-0.00002809
 ,0.00000145,-0.00002444,-0.00002902,-0.00000544,0.00024676,0.00086151,
 -0.00054513,0.00000036,-0.00000028,0.00001215,-0.00000350,0.00000283,0
 .00000369,0.00000180,-0.00001569,0.00001462,0.00001096,0.00001865,-0.0
 0006927,-0.00000672,0.00026157,-0.00011905,0.00041241,0.00030278,-0.00
 016587,0.00031492,0.00026608,-0.00049860,-0.00335323,0.00118225,0.0000
 6054,0.00002430,-0.00003360,0.00016361,-0.08581711,0.21260886,-0.30119
 393,0.10214313,-0.23900757,0.32265359,0.00080760,0.00151645,-0.0001102
 9,0.00045657,-0.00062287,-0.00036787,0.00011964,-0.00001572,-0.0000393
 6,-0.00005339,-0.00035961,0.00023652,-0.00044491,-0.00003745,-0.000061
 94,0.00038175,-0.00023034,0.00007724,-0.00007058,-0.00009770,0.0000417
 1,-0.00043678,-0.00035877,0.00027254,-0.00019360,0.00030084,-0.0002550
 0,-0.00017856,-0.00011851,0.00010046,-0.00002254,-0.00009504,0.0000786
 1,-0.00010222,-0.00078316,-0.00089925,-0.00219414,-0.00003135,-0.00412
 161,-0.00018823,0.00001135,0.00008693,0.00009951,0.00020679,-0.0000407
 9,-0.00017121,0.00010012,-0.00038278,-0.00001276,0.00009095,0.00000266
 ,-0.00004282,-0.00001069,0.00000856,0.00013913,0.00012202,-0.00003376,
 -0.00004032,0.00026947,0.00004024,0.00132538,0.00043533,-0.00040568,0.
 00001494,0.00001426,-0.00002424,-0.00002647,-0.00001144,0.00000011,0.0
 0002645,-0.00006231,0.00002255,-0.00001372,-0.00009132,0.00046523,0.00
 045017,0.00133209,-0.00069977,-0.00285635,-0.00353887,0.00074089,0.000
 19403,0.00235076,-0.00094382,-0.00131475,0.00115846,0.00378194,-0.0004
 4321,0.00014668,0.00001061,-0.13149869,0.06888671,0.18018874,0.0075519
 0,-0.00340043,-0.01657233,0.12878598,-0.00009312,-0.00048798,-0.000327
 01,-0.00034362,-0.00006484,0.00023706,-0.00003379,-0.00002915,0.000066
 01,-0.00000558,-0.00005896,0.00012582,-0.00007533,0.00003767,0.0000080
 8,-0.00040636,0.00074336,-0.00053402,0.00023015,-0.00082664,0.00118598
 ,-0.00008032,0.00003582,-0.00006877,-0.00001335,0.00027998,-0.00026704
 ,-0.00040554,-0.00005257,0.00005192,0.00045313,-0.00021186,0.00004013,
 0.00044367,-0.00034061,0.00052285,-0.00287562,-0.01246463,-0.00075695,
 0.00002309,-0.00003108,-0.00003067,0.00006997,0.00005972,-0.00003812,-
 0.00017826,0.00015207,-0.00005595,0.00008369,0.00002879,-0.00005026,0.
 00003593,-0.00012272,-0.00016297,0.00002208,0.00001420,-0.00003162,0.0
 0006117,-0.00004299,-0.00004421,0.00059107,-0.00392372,-0.00020984,0.0
 0000272,0.00005923,-0.00003771,-0.00000174,0.00000033,0.00001417,-0.00
 002111,0.00005579,-0.00002779,0.00004831,0.00004514,0.00004715,0.00058
 408,0.00048662,-0.00044072,0.00030779,0.00119872,0.00340750,0.00202021
 ,0.00169256,-0.00367284,-0.00105524,-0.00026742,-0.00120821,0.00007764
 ,-0.00002237,0.00025655,0.08215045,-0.06679091,-0.10270328,-0.01451145
 ,0.00590022,0.02681955,-0.06714722,0.07491364,-0.00219224,-0.00370482,
 -0.00050775,-0.00081061,0.00096534,0.00095618,-0.00012643,0.00002598,0
 .00027767,-0.00014812,-0.00022009,0.00012988,0.00113936,-0.00000019,0.
 00058038,-0.00029027,0.00027600,-0.00023464,0.00000783,0.00038491,-0.0
 0028306,0.00043288,0.00088201,-0.00075193,0.00010799,-0.00030083,0.000
 36215,0.00023968,0.00016321,-0.00011224,0.00002373,0.00022048,-0.00009
 365,-0.00421059,0.00352217,-0.00314407,-0.00533817,-0.00497858,-0.0024
 6117,0.00026644,-0.00003111,-0.00006749,-0.00003364,-0.00004879,-0.000
 10793,-0.00012293,0.00018655,0.00028178,0.00004420,0.00000016,-0.00011
 752,0.00012797,-0.00023032,-0.00011586,-0.00031285,-0.00014052,-0.0001
 6926,0.00004829,-0.00052981,-0.00018481,-0.00038676,-0.00096204,0.0024
 1108,-0.00002891,0.00000214,0.00005215,0.00002784,0.00002726,0.0000013
 6,-0.00004303,0.00008829,-0.00001800,0.00013438,0.00032062,-0.00078193
 ,-0.00110080,-0.00174134,0.00155494,0.00370838,0.00902147,0.00374686,-
 0.00189564,-0.00358499,0.00136236,0.00796352,-0.00390744,0.00409217,0.
 00013335,0.00030130,0.00018002,0.14961734,-0.06377753,-0.31514082,0.01
 410000,-0.01008989,-0.02055253,-0.16119495,0.07790989,0.32901215,-0.00
 178530,0.00049918,0.00009994,0.00030929,-0.00050048,-0.00019065,0.0002
 3302,0.00025738,-0.00025460,-0.00005562,-0.00007858,0.00000085,0.00061
 473,-0.00095116,-0.00065440,0.00022904,-0.00006452,0.00005734,0.000265
 53,0.00017623,-0.00007633,-0.00015318,-0.00007174,0.00001286,0.0000144
 0,0.00002668,0.00000593,0.00004414,-0.00001551,0.00002323,0.00000397,-
 0.00015298,0.00002576,-0.00000128,-0.00009051,0.00001743,-0.00004023,-
 0.00015497,-0.00071560,0.00025763,0.00016122,-0.00001489,0.00000870,-0
 .00001864,-0.00001490,-0.00002623,-0.00000217,0.00004081,0.00003034,-0
 .00003525,0.00009213,-0.00001029,0.00000699,-0.00009117,-0.00003803,-0
 .00016997,0.00013413,0.00000265,0.00038110,0.00004164,-0.00000457,0.00
 004943,-0.00000816,0.00000292,-0.00000266,0.00000111,-0.00000889,-0.00
 000304,0.00000304,-0.00005277,-0.00004732,0.00000024,-0.06945443,0.068
 02112,0.03322307,0.00007348,0.00012960,-0.00006779,0.00020179,0.000606
 26,0.00063490,-0.00003915,-0.00031908,0.00032894,-0.00005318,0.0000412
 0,0.00000412,-0.00000156,0.00000284,0.00001651,0.00007947,-0.00007159,
 -0.00015638,0.00001543,-0.00000545,0.00001322,-0.00012473,0.00002577,0
 .00028030,0.06988179,-0.00222491,0.00649144,0.00295534,-0.00023221,0.0
 0061222,0.00092937,0.00027921,0.00030867,0.00036488,-0.00023836,0.0001
 5357,-0.00021118,0.00008133,0.00078553,0.00056121,-0.00005122,0.000118
 41,0.00003742,-0.00007843,-0.00007567,0.00004886,0.00013311,0.00007090
 ,-0.00002468,-0.00001281,-0.00003071,-0.00000968,-0.00000634,0.0000483
 5,-0.00002035,-0.00004427,-0.00006283,0.00006010,0.00003417,0.00005124
 ,-0.00002744,0.00024655,0.00016057,0.00002756,-0.00023174,0.00010305,-
 0.00037055,-0.00001128,0.00000404,-0.00001377,-0.00000528,-0.00000359,
 0.00000939,-0.00001716,0.00002986,0.00009962,-0.00007234,0.00009006,-0
 .00003322,-0.00002642,-0.00041855,0.00002512,0.00017243,0.00059606,0.0
 0024051,0.00001360,-0.00002464,0.00000633,-0.00000043,0.00000661,-0.00
 000429,-0.00000242,0.,-0.00000643,-0.00005254,0.00011380,0.00000099,0.
 06863379,-0.25681319,-0.09901078,-0.00005541,-0.00009101,0.00005646,-0
 .00017893,-0.00010632,-0.00009236,-0.00004652,0.00007563,-0.00003014,-
 0.00000015,-0.00001209,0.00000458,-0.00000985,-0.00000092,-0.00000370,
 0.00000455,0.00003819,-0.00002307,0.00000095,-0.00000730,0.00000696,0.
 00000098,-0.00001893,0.00001354,-0.07373456,0.27027786,0.01265888,-0.0
 3146278,-0.02017372,-0.00131100,0.00273974,-0.00563241,0.00046955,-0.0
 0151578,-0.00073894,0.00040791,-0.00001636,0.00015345,0.00092053,-0.00
 168237,0.00119002,-0.00086734,0.00006550,0.00002066,0.00022301,0.00009
 738,0.00000573,-0.00004264,0.00004217,-0.00002377,0.00006054,-0.000048
 22,0.00001021,0.00005953,-0.00003685,0.00007074,0.00016461,0.00014736,
 0.00004309,-0.00001294,0.00004061,-0.00000144,-0.00004999,0.00044545,0
 .00035479,-0.00039637,0.00059221,-0.00024434,-0.00003514,0.00007711,0.
 00007571,-0.00003861,0.00004400,0.00000418,-0.00007482,0.00007495,-0.0
 0046872,-0.00010898,0.00001310,-0.00030303,-0.00027769,0.00014580,-0.0
 0008545,-0.00016583,-0.00001189,0.00007522,-0.00002718,-0.00006209,-0.
 00000868,-0.00000664,-0.00000710,-0.00000093,0.00002209,-0.00000362,-0
 .00000205,-0.00002211,-0.00008733,-0.00004811,0.02954217,-0.08999042,-
 0.09057532,-0.00001121,-0.00004739,0.00001486,-0.00010755,-0.00103927,
 -0.00048088,0.00023706,0.00026266,-0.00008079,0.00003672,-0.00002699,-
 0.00000341,0.00000397,-0.00000068,-0.00000542,-0.00005977,0.00005662,0
 .00011171,-0.00000222,-0.00000185,-0.00001112,0.00009771,-0.00001205,-
 0.00019606,-0.03619572,0.10478957,0.10812502,0.00478401,-0.00102689,0.
 00009817,0.00004952,0.00080840,0.00017115,-0.00011143,-0.00012359,-0.0
 0015454,0.00020377,0.00017410,0.00026519,0.00115933,-0.00044577,0.0002
 8628,-0.00028025,-0.00017213,0.00065863,0.00067010,0.00017472,-0.00010
 207,-0.00038375,0.00002610,-0.00009690,0.00003721,-0.00018129,0.000068
 24,0.00019269,0.00008148,0.00010979,-0.00025916,0.00037914,0.00013158,
 0.00000559,-0.00005359,0.00004156,0.00027614,0.00023189,0.00007536,-0.
 00001717,-0.00006522,0.00010022,0.00001094,-0.00002233,0.00001089,0.00
 004138,-0.00003353,-0.00010837,-0.00000147,-0.00001740,-0.00001052,0.0
 0005207,-0.00001647,-0.00002565,0.00043407,0.00007288,0.00026112,-0.00
 024911,-0.00011345,0.00015685,-0.00004096,0.00003902,0.00001210,-0.000
 00394,-0.00000688,0.00000294,0.00002301,-0.00002618,-0.00002675,-0.000
 03402,-0.00016958,-0.00004904,-0.27556568,0.05749525,-0.08296951,0.000
 05120,0.00009434,-0.00004153,-0.00027363,-0.00026998,-0.00010597,-0.00
 007008,0.00005652,-0.00008804,-0.00004599,0.00002630,-0.00001758,0.000
 00100,0.,-0.00000143,0.00006772,-0.00002112,0.00000153,-0.00001833,-0.
 00001057,-0.00000068,-0.00003416,0.00000163,0.00002832,-0.00669570,0.0
 0011666,-0.00233515,0.29236826,0.00378266,-0.00274744,0.00186001,-0.00
 046646,0.00021516,-0.00027629,-0.00000256,-0.00006056,0.00009400,0.000
 51014,0.00041680,-0.00002608,-0.00062594,0.00057239,0.00079029,0.00009
 830,-0.00001673,-0.00034686,0.00011769,0.00012693,-0.00004689,-0.00026
 788,-0.00007795,0.00003295,-0.00002859,0.00001364,0.00002758,0.0000851
 6,-0.00007658,0.00005040,0.00019478,-0.00002828,-0.00033037,-0.0000136
 0,-0.00008695,0.00000088,-0.00039886,0.00003069,-0.00059966,-0.0002741
 7,0.00034219,-0.00019088,-0.00004332,0.00003296,0.00017191,0.00000568,
 -0.00004406,-0.00009872,0.00000127,0.00001783,0.00002238,-0.00000301,0
 .00001753,0.00001688,0.00044535,0.00003490,0.00009417,-0.00022992,-0.0
 0003281,0.00020236,-0.00002539,0.00001484,0.00001789,-0.00000629,-0.00
 000770,0.00001146,0.00000595,0.00000744,0.00000926,-0.00005010,-0.0001
 7307,-0.00006546,0.05568638,-0.06195707,0.02084892,0.00007910,0.000132
 55,-0.00005914,0.00075895,0.00025131,0.00041823,0.00016947,-0.00019802
 ,0.00016520,-0.00002849,0.00003010,0.00001182,-0.00000318,0.00000102,0
 .00002189,0.00003799,-0.00006727,-0.00011258,0.00001596,0.00000162,0.0
 0000846,-0.00007919,0.00002701,0.00019996,0.02474399,-0.00487023,0.010
 03508,-0.06298242,0.06228081,-0.03434321,0.01193023,-0.01683749,-0.001
 26344,0.00068051,0.00119492,-0.00011252,0.00038051,0.00010592,-0.00198
 025,0.00050330,-0.00072752,0.00316463,-0.00149592,-0.00558780,0.000103
 99,-0.00051257,-0.00045839,0.00029070,0.00027939,-0.00014464,-0.000127
 33,-0.00008295,0.00004185,0.00000929,0.00000389,-0.00001870,0.00003764
 ,-0.00010163,0.00006874,0.00034883,-0.00030657,-0.00002812,-0.00003631
 ,-0.00011174,0.00008316,0.00049230,0.00020829,0.00017212,0.00004245,0.
 00024016,0.00010941,0.00020121,-0.00004446,-0.00065519,0.00001422,0.00
 001560,-0.00008867,0.00003389,-0.00002928,0.00004910,0.00006966,-0.000
 05779,-0.00001418,-0.00009577,-0.00022084,-0.00001829,0.00014241,-0.00
 029443,-0.00015082,-0.00006551,0.00001484,-0.00003106,0.00000725,-0.00
 000679,0.00000514,-0.00000142,0.00000468,0.00001492,-0.00001495,-0.000
 03545,0.00002084,-0.07448857,0.01865029,-0.07537888,0.00012252,0.00017
 399,-0.00012150,-0.00091130,-0.00056005,-0.00018053,0.00000230,0.00007
 654,-0.00002893,-0.00005152,0.00004470,-0.00002944,0.00001460,-0.00000
 043,0.00000271,0.00007103,-0.00005037,0.00006209,-0.00002493,-0.000015
 43,-0.00001179,-0.00002965,0.00002095,-0.00002338,0.01232776,-0.001988
 23,0.00502163,0.08951894,-0.02481174,0.09048643,-0.00009761,-0.0004699
 8,0.00525926,0.00029322,-0.00085542,-0.00068023,0.00018221,0.00017177,
 -0.00008215,0.00004524,0.00001781,-0.00024667,0.00271626,0.00197769,-0
 .00087692,-0.00005921,0.00009876,-0.00015777,0.00002506,-0.00008584,0.
 00005412,0.00012352,0.00005898,-0.00005624,0.00002241,-0.00001148,-0.0
 0000582,0.00002854,0.00005503,-0.00006235,-0.00018922,-0.00041325,0.00
 017488,-0.00004678,0.00003192,0.00001529,-0.00029425,-0.00060133,0.000
 15628,-0.00010588,-0.00011186,0.00002308,-0.00001623,-0.00000614,0.000
 04616,-0.00008791,-0.00001220,-0.00009116,0.00001593,0.00002677,0.0000
 6816,-0.00006718,0.00008506,-0.00009937,0.00046585,-0.00081399,0.00094
 604,-0.00030147,0.00087316,0.00072838,0.00004336,-0.00000575,-0.000049
 49,0.00001116,0.00001128,-0.00000654,-0.00002189,-0.00001180,-0.000000
 33,-0.00004162,0.00017802,0.00007033,-0.15569075,-0.11627202,0.0363855
 9,0.00000300,-0.00002869,-0.00000139,0.00058383,0.00105871,-0.00011950
 ,-0.00011422,0.00004134,0.00001933,0.00006020,-0.00002408,-0.00000950,
 0.00001587,0.00000054,-0.00001051,-0.00009242,0.00001777,0.00012539,0.
 00000080,0.00001004,-0.00002131,0.00011111,0.00001507,-0.00019585,0.00
 627683,0.00761624,-0.00275535,-0.01634319,-0.02120944,0.00653107,0.162
 54545,-0.00234416,-0.00312018,0.00776859,0.00213889,0.00297675,-0.0017
 7127,0.00013167,0.00002888,-0.00018505,0.00028648,0.00018841,-0.000009
 11,-0.00117149,0.00032948,-0.00067299,0.00011264,-0.00020588,0.0000193
 8,0.00000406,-0.00009499,-0.00001981,-0.00001205,-0.00000341,0.0000483
 0,-0.00000261,0.00002561,-0.00003630,-0.00006324,-0.00000248,-0.000008
 68,-0.00004523,-0.00006131,0.00006807,-0.00006980,0.00001342,0.0000203
 5,-0.00042933,-0.00070082,0.00011289,-0.00006773,-0.00015757,-0.000105
 02,0.00000246,0.00003311,0.00012361,0.00010558,-0.00003777,-0.00020967
 ,-0.00001905,-0.00001245,0.00006756,-0.00000998,0.00000520,-0.00004360
 ,0.00089093,-0.00025806,0.00065234,-0.00077535,0.00067788,0.00121626,0
 .00003394,-0.00000785,-0.00004604,0.00000407,0.00000091,-0.00000047,-0
 .00000791,0.00000039,0.00000488,-0.00000977,0.00002822,0.00004275,-0.1
 1560254,-0.17746472,0.03985652,0.00002267,0.00002506,-0.00001274,0.000
 86128,0.00127791,-0.00011697,-0.00001585,0.00014115,-0.00004598,0.0000
 7593,-0.00002711,-0.00000611,0.00002007,-0.00000048,-0.00000604,-0.000
 11705,0.00000611,0.00017039,-0.00000475,0.00001317,-0.00002691,0.00014
 872,0.00002654,-0.00026297,-0.01863881,-0.01760009,0.00638375,0.005979
 95,0.00587698,-0.00250121,0.12858731,0.18808001,0.02375973,0.02683711,
 -0.02630855,0.00038129,0.00592803,0.00180184,-0.00042094,-0.00015186,0
 .00049038,-0.00032550,-0.00028948,0.00023633,0.00486642,0.00011699,0.0
 0161672,-0.00020916,-0.00055269,0.00007776,0.00002426,0.00016004,-0.00
 012761,-0.00010684,-0.00003059,0.00000475,0.00004146,-0.00009964,0.000
 04721,0.00010912,-0.00000393,0.00001880,0.00002634,0.00012106,-0.00000
 477,0.00003214,-0.00001814,0.00002168,0.00097077,0.00132737,0.00058980
 ,-0.00041541,-0.00005417,-0.00011563,-0.00006359,-0.00014468,-0.000081
 24,-0.00009370,-0.00008176,0.00022326,-0.00007133,-0.00005637,-0.00007
 705,0.00002385,-0.00003972,0.00017854,-0.00146159,-0.00082410,0.000490
 64,-0.00069796,-0.00184532,0.00051070,-0.00009359,-0.00000603,0.000050
 15,-0.00000184,-0.00000556,0.00000782,0.00000917,-0.00000346,0.0000028
 4,0.00001686,-0.00004345,-0.00000548,0.03503175,0.03860282,-0.06055763
 ,-0.00000842,0.00001686,-0.00001907,-0.00155487,-0.00211231,-0.0011640
 9,0.00016977,0.00025182,-0.00022228,-0.00005499,0.00001728,-0.00000846
 ,-0.00000357,-0.00000182,-0.00000696,0.00008363,0.00001632,-0.00004430
 ,-0.00000841,-0.00001304,0.00001039,-0.00007015,-0.00003360,0.00006299
 ,-0.00894465,-0.00836795,0.00380757,-0.00586511,-0.00814733,0.00309633
 ,-0.04507493,-0.05046871,0.07539664\\0.00000332,0.00001546,0.00000581,
 0.00000252,0.00000536,-0.00000452,-0.00000140,0.00000080,0.00000379,0.
 00000110,0.00000107,0.00000042,-0.00000163,-0.00000319,-0.00000164,0.0
 0000823,-0.00000330,0.00000024,0.00001108,0.00000187,-0.00000181,-0.00
 000852,0.00000754,-0.00000034,0.00000051,-0.00001152,0.00000907,0.0000
 0970,0.00000305,-0.00000261,-0.00000706,0.00000861,-0.00000420,-0.0000
 1525,-0.00000381,-0.00000261,0.00001713,0.00001486,0.00000240,-0.00000
 174,0.00000025,0.00000043,-0.00000030,-0.00000008,-0.00000033,0.000000
 13,-0.00000068,-0.00000050,0.00000090,0.00000003,-0.00000033,0.0000001
 8,0.00000069,-0.00000028,0.00000066,0.00000029,-0.00000060,0.00000098,
 -0.00000294,-0.00000133,-0.00000940,-0.00000499,0.00000339,-0.00000009
 ,0.00000095,0.00000050,-0.00000159,-0.00000008,0.00000106,0.00000098,-
 0.00000132,-0.00000013,-0.00000516,-0.00000172,-0.00000049,0.00000767,
 0.00000118,-0.00000462,-0.00002346,-0.00003326,-0.00000173,0.00000011,
 0.00000544,-0.00000279,0.00001731,0.00000413,0.00000678,-0.00000342,-0
 .00000309,0.00000127,0.00000089,-0.00000075,0.00000253,-0.00000334,-0.
 00000022,0.00000327,-0.00000280,-0.00000200,-0.00000822,0.00000547,0.0
 0000174,0.00000013,-0.00000194,-0.00000268,-0.00000070,-0.00000177,0.0
 0000230,-0.00000129\\\@


 EVANS BOLDLY PUT 50 ATM. OF ETHYLENE IN A CELL WITH 25 ATM. OF OXYGEN.
 THE APPARATUS SUBSEQUENTLY BLEW UP, BUT LUCKILY NOT BEFORE HE
 OBTAINED THE SPECTRA SHOWN IN FIGURE 8.
 A.J.MERER AND R.S.MULLIKEN, CHEM.REV. 69, 645 (1969)
 Job cpu time:       1 days  0 hours 23 minutes 34.9 seconds.
 Elapsed time:       0 days  0 hours 52 minutes 18.9 seconds.
 File lengths (MBytes):  RWF=   1060 Int=      0 D2E=      0 Chk=     28 Scr=      8
 Normal termination of Gaussian 16 at Sat Jan 28 21:24:54 2023.
