 Entering Gaussian System, Link 0=g16
 Input=Nic4h3bMidIntTS_2.gjf
 Output=Nic4h3bMidIntTS_2.log
 Initial command:
 /sw/contrib/gaussian/g16/A03/g16/l1.exe "/gscratch/scrubbed/gds001/Gau-5818.inp" -scrdir="/gscratch/scrubbed/gds001/"
 Entering Link 1 = /sw/contrib/gaussian/g16/A03/g16/l1.exe PID=      5819.
  
 Copyright (c) 1988,1990,1992,1993,1995,1998,2003,2009,2016,
            Gaussian, Inc.  All Rights Reserved.
  
 This is part of the Gaussian(R) 16 program.  It is based on
 the Gaussian(R) 09 system (copyright 2009, Gaussian, Inc.),
 the Gaussian(R) 03 system (copyright 2003, Gaussian, Inc.),
 the Gaussian(R) 98 system (copyright 1998, Gaussian, Inc.),
 the Gaussian(R) 94 system (copyright 1995, Gaussian, Inc.),
 the Gaussian 92(TM) system (copyright 1992, Gaussian, Inc.),
 the Gaussian 90(TM) system (copyright 1990, Gaussian, Inc.),
 the Gaussian 88(TM) system (copyright 1988, Gaussian, Inc.),
 the Gaussian 86(TM) system (copyright 1986, Carnegie Mellon
 University), and the Gaussian 82(TM) system (copyright 1983,
 Carnegie Mellon University). Gaussian is a federally registered
 trademark of Gaussian, Inc.
  
 This software contains proprietary and confidential information,
 including trade secrets, belonging to Gaussian, Inc.
  
 This software is provided under written license and may be
 used, copied, transmitted, or stored only in accord with that
 written license.
  
 The following legend is applicable only to US Government
 contracts under FAR:
  
                    RESTRICTED RIGHTS LEGEND
  
 Use, reproduction and disclosure by the US Government is
 subject to restrictions as set forth in subparagraphs (a)
 and (c) of the Commercial Computer Software - Restricted
 Rights clause in FAR 52.227-19.
  
 Gaussian, Inc.
 340 Quinnipiac St., Bldg. 40, Wallingford CT 06492
  
  
 ---------------------------------------------------------------
 Warning -- This program may not be used in any manner that
 competes with the business of Gaussian, Inc. or will provide
 assistance to any competitor of Gaussian, Inc.  The licensee
 of this program is prohibited from giving any competitor of
 Gaussian, Inc. access to this program.  By using this program,
 the user acknowledges that Gaussian, Inc. is engaged in the
 business of creating and licensing software in the field of
 computational chemistry and represents and warrants to the
 licensee that it is not a competitor of Gaussian, Inc. and that
 it will not use this program in any manner prohibited above.
 ---------------------------------------------------------------
  

 Cite this work as:
 Gaussian 16, Revision A.03,
 M. J. Frisch, G. W. Trucks, H. B. Schlegel, G. E. Scuseria, 
 M. A. Robb, J. R. Cheeseman, G. Scalmani, V. Barone, 
 G. A. Petersson, H. Nakatsuji, X. Li, M. Caricato, A. V. Marenich, 
 J. Bloino, B. G. Janesko, R. Gomperts, B. Mennucci, H. P. Hratchian, 
 J. V. Ortiz, A. F. Izmaylov, J. L. Sonnenberg, D. Williams-Young, 
 F. Ding, F. Lipparini, F. Egidi, J. Goings, B. Peng, A. Petrone, 
 T. Henderson, D. Ranasinghe, V. G. Zakrzewski, J. Gao, N. Rega, 
 G. Zheng, W. Liang, M. Hada, M. Ehara, K. Toyota, R. Fukuda, 
 J. Hasegawa, M. Ishida, T. Nakajima, Y. Honda, O. Kitao, H. Nakai, 
 T. Vreven, K. Throssell, J. A. Montgomery, Jr., J. E. Peralta, 
 F. Ogliaro, M. J. Bearpark, J. J. Heyd, E. N. Brothers, K. N. Kudin, 
 V. N. Staroverov, T. A. Keith, R. Kobayashi, J. Normand, 
 K. Raghavachari, A. P. Rendell, J. C. Burant, S. S. Iyengar, 
 J. Tomasi, M. Cossi, J. M. Millam, M. Klene, C. Adamo, R. Cammi, 
 J. W. Ochterski, R. L. Martin, K. Morokuma, O. Farkas, 
 J. B. Foresman, and D. J. Fox, Gaussian, Inc., Wallingford CT, 2016.
 
 ******************************************
 Gaussian 16:  ES64L-G16RevA.03 25-Dec-2016
                25-Feb-2023 
 ******************************************
 %nprocshared=28
 Will use up to   28 processors via shared memory.
 %mem=41GB
 ----------------------------------------------------------------
 # wB97XD/aug-cc-pVDZ opt=(TS,CalcAll,MaxStep=5,NoEigenTest) freq
 ----------------------------------------------------------------
 1/5=1,8=5,10=4,11=1,18=20,26=3,38=1/1,3;
 2/9=110,12=2,17=6,18=5,40=1/2;
 3/5=16,7=10,11=2,25=1,30=1,71=2,74=-58,140=1/1,2,3;
 4//1;
 5/5=2,38=5/2;
 8/6=4,10=90,11=11/1;
 11/6=1,8=1,9=11,15=111,16=1/1,2,10;
 10/6=1/2;
 6/7=2,8=2,9=2,10=2,18=1,28=1/1;
 7/10=1,25=1/1,2,3,16;
 1/5=1,8=5,10=4,11=1,18=20,26=3/3(3);
 2/9=110/2;
 7/8=1,9=1,25=1,44=-1/16;
 99//99;
 2/9=110/2;
 3/5=16,7=10,11=2,25=1,30=1,71=2,74=-58,140=1/1,2,3;
 4/5=5,16=3,69=1/1;
 5/5=2,38=5/2;
 8/6=4,10=90,11=11/1;
 11/6=1,8=1,9=11,15=111,16=1/1,2,10;
 10/6=1/2;
 7/10=1,25=1/1,2,3,16;
 1/5=1,8=5,10=4,11=1,18=20,26=3/3(-8);
 2/9=110/2;
 6/7=2,8=2,9=2,10=2,18=1,19=2,28=1/1;
 7/8=1,9=1,25=1,44=-1/16;
 99//99;
 ----
 blah
 ----
 Symbolic Z-matrix:
 Charge =  1 Multiplicity = 1
 N                    -1.25543   1.94699  -0.53322 
 C                    -1.17603   3.07838   0.1799 
 C                    -0.04364   3.40193   0.91375 
 C                     1.02877   2.51178   0.91626 
 C                     0.95884   1.33478   0.17147 
 C                    -0.21431   1.10801  -0.54616 
 C                     2.09277   0.33878   0.14284 
 C                     2.71016   0.08055  -1.24212 
 C                     3.27611  -1.35649  -1.14707 
 C                     2.85231  -1.84472   0.24539 
 N                     1.6883   -1.00995   0.58315 
 C                     1.32198  -1.08254   1.99319 
 H                    -2.04721   3.7321    0.15692 
 H                    -0.00829   4.32952   1.4813 
 H                     1.92264   2.73534   1.49968 
 H                    -0.33331   0.21014  -1.15295 
 H                     2.88355   0.70981   0.82327 
 H                     3.47343   0.82972  -1.4762 
 H                     1.93833   0.14636  -2.01802 
 H                     4.36455  -1.38268  -1.25923 
 H                     2.852    -1.99105  -1.93328 
 H                     3.65943  -1.68118   0.98182 
 H                     2.57964  -2.90686   0.28092 
 H                     2.1473   -0.74841   2.64692 
 H                     1.06903  -2.11746   2.25119 
 H                     0.44276  -0.45552   2.18455 
 O                    -3.28404   0.71734  -1.43219 
 O                    -0.30373  -2.09733  -0.90367 
 O                    -2.84337  -1.57228  -0.74358 
 H                    -3.49696   0.84287  -2.36231 
 H                     0.00514  -2.92688  -1.27363 
 H                    -3.22704  -1.8199    0.12647 
 H                    -2.47999   1.34561  -1.12143 
 H                    -3.11369  -0.2833   -1.1742 
 H                    -1.87757  -1.81636  -0.75529 
 H                     0.43155  -1.71365  -0.33573 
 O                    -3.86807  -2.31149   1.6313 
 H                    -4.38086  -1.73338   2.2031 
 H                    -4.28254  -3.17682   1.697 
 
 Add virtual bond connecting atoms H34        and O29        Dist= 2.62D+00.
 Add virtual bond connecting atoms H33        and N1         Dist= 2.81D+00.
 Add virtual bond connecting atoms N11        and H36        Dist= 3.23D+00.
 Add virtual bond connecting atoms H35        and O28        Dist= 3.03D+00.
 Add virtual bond connecting atoms O37        and H32        Dist= 3.23D+00.

 GradGradGradGradGradGradGradGradGradGradGradGradGradGradGradGradGradGrad
 Berny optimization.
 Initialization pass.
                           ----------------------------
                           !    Initial Parameters    !
                           ! (Angstroms and Degrees)  !
 --------------------------                            --------------------------
 ! Name  Definition              Value          Derivative Info.                !
 --------------------------------------------------------------------------------
 ! R1    R(1,2)                  1.3397         calculate D2E/DX2 analytically  !
 ! R2    R(1,6)                  1.3372         calculate D2E/DX2 analytically  !
 ! R3    R(1,33)                 1.4857         calculate D2E/DX2 analytically  !
 ! R4    R(2,3)                  1.3876         calculate D2E/DX2 analytically  !
 ! R5    R(2,13)                 1.0894         calculate D2E/DX2 analytically  !
 ! R6    R(3,4)                  1.3937         calculate D2E/DX2 analytically  !
 ! R7    R(3,14)                 1.088          calculate D2E/DX2 analytically  !
 ! R8    R(4,5)                  1.3946         calculate D2E/DX2 analytically  !
 ! R9    R(4,15)                 1.0906         calculate D2E/DX2 analytically  !
 ! R10   R(5,6)                  1.3938         calculate D2E/DX2 analytically  !
 ! R11   R(5,7)                  1.5095         calculate D2E/DX2 analytically  !
 ! R12   R(6,16)                 1.0902         calculate D2E/DX2 analytically  !
 ! R13   R(7,8)                  1.5382         calculate D2E/DX2 analytically  !
 ! R14   R(7,11)                 1.4753         calculate D2E/DX2 analytically  !
 ! R15   R(7,17)                 1.1072         calculate D2E/DX2 analytically  !
 ! R16   R(8,9)                  1.5474         calculate D2E/DX2 analytically  !
 ! R17   R(8,18)                 1.0948         calculate D2E/DX2 analytically  !
 ! R18   R(8,19)                 1.0964         calculate D2E/DX2 analytically  !
 ! R19   R(9,10)                 1.5352         calculate D2E/DX2 analytically  !
 ! R20   R(9,20)                 1.0945         calculate D2E/DX2 analytically  !
 ! R21   R(9,21)                 1.0957         calculate D2E/DX2 analytically  !
 ! R22   R(10,11)                1.4717         calculate D2E/DX2 analytically  !
 ! R23   R(10,22)                1.1048         calculate D2E/DX2 analytically  !
 ! R24   R(10,23)                1.0972         calculate D2E/DX2 analytically  !
 ! R25   R(11,12)                1.4587         calculate D2E/DX2 analytically  !
 ! R26   R(11,36)                1.7085         calculate D2E/DX2 analytically  !
 ! R27   R(12,24)                1.1046         calculate D2E/DX2 analytically  !
 ! R28   R(12,25)                1.0962         calculate D2E/DX2 analytically  !
 ! R29   R(12,26)                1.0967         calculate D2E/DX2 analytically  !
 ! R30   R(27,30)                0.9624         calculate D2E/DX2 analytically  !
 ! R31   R(27,33)                1.0667         calculate D2E/DX2 analytically  !
 ! R32   R(27,34)                1.0473         calculate D2E/DX2 analytically  !
 ! R33   R(28,31)                0.9594         calculate D2E/DX2 analytically  !
 ! R34   R(28,35)                1.6056         calculate D2E/DX2 analytically  !
 ! R35   R(28,36)                1.0052         calculate D2E/DX2 analytically  !
 ! R36   R(29,32)                0.9826         calculate D2E/DX2 analytically  !
 ! R37   R(29,34)                1.3856         calculate D2E/DX2 analytically  !
 ! R38   R(29,35)                0.9962         calculate D2E/DX2 analytically  !
 ! R39   R(32,37)                1.7079         calculate D2E/DX2 analytically  !
 ! R40   R(37,38)                0.9613         calculate D2E/DX2 analytically  !
 ! R41   R(37,39)                0.9617         calculate D2E/DX2 analytically  !
 ! A1    A(2,1,6)              119.2667         calculate D2E/DX2 analytically  !
 ! A2    A(2,1,33)             126.9723         calculate D2E/DX2 analytically  !
 ! A3    A(6,1,33)             112.579          calculate D2E/DX2 analytically  !
 ! A4    A(1,2,3)              121.7871         calculate D2E/DX2 analytically  !
 ! A5    A(1,2,13)             116.6241         calculate D2E/DX2 analytically  !
 ! A6    A(3,2,13)             121.5887         calculate D2E/DX2 analytically  !
 ! A7    A(2,3,4)              118.6828         calculate D2E/DX2 analytically  !
 ! A8    A(2,3,14)             120.0773         calculate D2E/DX2 analytically  !
 ! A9    A(4,3,14)             121.2364         calculate D2E/DX2 analytically  !
 ! A10   A(3,4,5)              119.966          calculate D2E/DX2 analytically  !
 ! A11   A(3,4,15)             120.0473         calculate D2E/DX2 analytically  !
 ! A12   A(5,4,15)             119.9867         calculate D2E/DX2 analytically  !
 ! A13   A(4,5,6)              117.0317         calculate D2E/DX2 analytically  !
 ! A14   A(4,5,7)              121.9599         calculate D2E/DX2 analytically  !
 ! A15   A(6,5,7)              121.0072         calculate D2E/DX2 analytically  !
 ! A16   A(1,6,5)              123.2488         calculate D2E/DX2 analytically  !
 ! A17   A(1,6,16)             115.9221         calculate D2E/DX2 analytically  !
 ! A18   A(5,6,16)             120.8267         calculate D2E/DX2 analytically  !
 ! A19   A(5,7,8)              115.4273         calculate D2E/DX2 analytically  !
 ! A20   A(5,7,11)             113.0537         calculate D2E/DX2 analytically  !
 ! A21   A(5,7,17)             107.6824         calculate D2E/DX2 analytically  !
 ! A22   A(8,7,11)             103.0196         calculate D2E/DX2 analytically  !
 ! A23   A(8,7,17)             108.8391         calculate D2E/DX2 analytically  !
 ! A24   A(11,7,17)            108.5866         calculate D2E/DX2 analytically  !
 ! A25   A(7,8,9)              104.3242         calculate D2E/DX2 analytically  !
 ! A26   A(7,8,18)             110.9439         calculate D2E/DX2 analytically  !
 ! A27   A(7,8,19)             110.1546         calculate D2E/DX2 analytically  !
 ! A28   A(9,8,18)             113.1814         calculate D2E/DX2 analytically  !
 ! A29   A(9,8,19)             110.8971         calculate D2E/DX2 analytically  !
 ! A30   A(18,8,19)            107.3615         calculate D2E/DX2 analytically  !
 ! A31   A(8,9,10)             104.4828         calculate D2E/DX2 analytically  !
 ! A32   A(8,9,20)             112.3117         calculate D2E/DX2 analytically  !
 ! A33   A(8,9,21)             110.6208         calculate D2E/DX2 analytically  !
 ! A34   A(10,9,20)            111.0908         calculate D2E/DX2 analytically  !
 ! A35   A(10,9,21)            111.0862         calculate D2E/DX2 analytically  !
 ! A36   A(20,9,21)            107.3086         calculate D2E/DX2 analytically  !
 ! A37   A(9,10,11)            104.2477         calculate D2E/DX2 analytically  !
 ! A38   A(9,10,22)            110.8456         calculate D2E/DX2 analytically  !
 ! A39   A(9,10,23)            113.9442         calculate D2E/DX2 analytically  !
 ! A40   A(11,10,22)           109.9315         calculate D2E/DX2 analytically  !
 ! A41   A(11,10,23)           110.1891         calculate D2E/DX2 analytically  !
 ! A42   A(22,10,23)           107.6546         calculate D2E/DX2 analytically  !
 ! A43   A(7,11,10)            103.4861         calculate D2E/DX2 analytically  !
 ! A44   A(7,11,12)            113.7562         calculate D2E/DX2 analytically  !
 ! A45   A(7,11,36)            114.6895         calculate D2E/DX2 analytically  !
 ! A46   A(10,11,12)           113.0954         calculate D2E/DX2 analytically  !
 ! A47   A(10,11,36)           102.988          calculate D2E/DX2 analytically  !
 ! A48   A(12,11,36)           108.3413         calculate D2E/DX2 analytically  !
 ! A49   A(11,12,24)           111.679          calculate D2E/DX2 analytically  !
 ! A50   A(11,12,25)           109.4174         calculate D2E/DX2 analytically  !
 ! A51   A(11,12,26)           109.9712         calculate D2E/DX2 analytically  !
 ! A52   A(24,12,25)           108.5842         calculate D2E/DX2 analytically  !
 ! A53   A(24,12,26)           108.8315         calculate D2E/DX2 analytically  !
 ! A54   A(25,12,26)           108.2834         calculate D2E/DX2 analytically  !
 ! A55   A(30,27,33)           111.8085         calculate D2E/DX2 analytically  !
 ! A56   A(30,27,34)           113.4957         calculate D2E/DX2 analytically  !
 ! A57   A(33,27,34)           111.6159         calculate D2E/DX2 analytically  !
 ! A58   A(31,28,35)           120.1676         calculate D2E/DX2 analytically  !
 ! A59   A(31,28,36)           108.2051         calculate D2E/DX2 analytically  !
 ! A60   A(35,28,36)           126.7277         calculate D2E/DX2 analytically  !
 ! A61   A(32,29,34)           115.6849         calculate D2E/DX2 analytically  !
 ! A62   A(32,29,35)           109.0991         calculate D2E/DX2 analytically  !
 ! A63   A(34,29,35)           114.4177         calculate D2E/DX2 analytically  !
 ! A64   A(32,37,38)           123.4482         calculate D2E/DX2 analytically  !
 ! A65   A(32,37,39)           118.7462         calculate D2E/DX2 analytically  !
 ! A66   A(38,37,39)           105.6984         calculate D2E/DX2 analytically  !
 ! A67   L(29,32,37,3,-1)      181.3931         calculate D2E/DX2 analytically  !
 ! A68   L(1,33,27,28,-1)      168.5961         calculate D2E/DX2 analytically  !
 ! A69   L(27,34,29,4,-1)      176.2982         calculate D2E/DX2 analytically  !
 ! A70   L(28,35,29,1,-1)      176.2118         calculate D2E/DX2 analytically  !
 ! A71   L(11,36,28,1,-1)      178.4529         calculate D2E/DX2 analytically  !
 ! A72   L(29,32,37,3,-2)      181.8515         calculate D2E/DX2 analytically  !
 ! A73   L(1,33,27,28,-2)      174.1376         calculate D2E/DX2 analytically  !
 ! A74   L(27,34,29,4,-2)      177.588          calculate D2E/DX2 analytically  !
 ! A75   L(28,35,29,1,-2)      175.1439         calculate D2E/DX2 analytically  !
 ! A76   L(11,36,28,1,-2)      178.2452         calculate D2E/DX2 analytically  !
 ! D1    D(6,1,2,3)             -0.3675         calculate D2E/DX2 analytically  !
 ! D2    D(6,1,2,13)           179.7681         calculate D2E/DX2 analytically  !
 ! D3    D(33,1,2,3)           166.2354         calculate D2E/DX2 analytically  !
 ! D4    D(33,1,2,13)          -13.629          calculate D2E/DX2 analytically  !
 ! D5    D(2,1,6,5)              1.252          calculate D2E/DX2 analytically  !
 ! D6    D(2,1,6,16)          -179.3204         calculate D2E/DX2 analytically  !
 ! D7    D(33,1,6,5)          -167.1832         calculate D2E/DX2 analytically  !
 ! D8    D(33,1,6,16)           12.2444         calculate D2E/DX2 analytically  !
 ! D9    D(2,1,27,30)          100.4242         calculate D2E/DX2 analytically  !
 ! D10   D(2,1,27,34)         -133.2658         calculate D2E/DX2 analytically  !
 ! D11   D(6,1,27,30)          -96.8694         calculate D2E/DX2 analytically  !
 ! D12   D(6,1,27,34)           29.4406         calculate D2E/DX2 analytically  !
 ! D13   D(1,2,3,4)             -0.8055         calculate D2E/DX2 analytically  !
 ! D14   D(1,2,3,14)           179.8597         calculate D2E/DX2 analytically  !
 ! D15   D(13,2,3,4)           179.0523         calculate D2E/DX2 analytically  !
 ! D16   D(13,2,3,14)           -0.2826         calculate D2E/DX2 analytically  !
 ! D17   D(2,3,4,5)              1.1322         calculate D2E/DX2 analytically  !
 ! D18   D(2,3,4,15)          -178.9061         calculate D2E/DX2 analytically  !
 ! D19   D(14,3,4,5)          -179.5409         calculate D2E/DX2 analytically  !
 ! D20   D(14,3,4,15)            0.4208         calculate D2E/DX2 analytically  !
 ! D21   D(3,4,5,6)             -0.3246         calculate D2E/DX2 analytically  !
 ! D22   D(3,4,5,7)           -179.9388         calculate D2E/DX2 analytically  !
 ! D23   D(15,4,5,6)           179.7137         calculate D2E/DX2 analytically  !
 ! D24   D(15,4,5,7)             0.0995         calculate D2E/DX2 analytically  !
 ! D25   D(4,5,6,1)             -0.8951         calculate D2E/DX2 analytically  !
 ! D26   D(4,5,6,16)           179.7044         calculate D2E/DX2 analytically  !
 ! D27   D(7,5,6,1)            178.723          calculate D2E/DX2 analytically  !
 ! D28   D(7,5,6,16)            -0.6775         calculate D2E/DX2 analytically  !
 ! D29   D(4,5,7,8)           -119.314          calculate D2E/DX2 analytically  !
 ! D30   D(4,5,7,11)           122.429          calculate D2E/DX2 analytically  !
 ! D31   D(4,5,7,17)             2.4783         calculate D2E/DX2 analytically  !
 ! D32   D(6,5,7,8)             61.087          calculate D2E/DX2 analytically  !
 ! D33   D(6,5,7,11)           -57.17           calculate D2E/DX2 analytically  !
 ! D34   D(6,5,7,17)          -177.1208         calculate D2E/DX2 analytically  !
 ! D35   D(5,7,8,9)           -153.0621         calculate D2E/DX2 analytically  !
 ! D36   D(5,7,8,18)            84.7466         calculate D2E/DX2 analytically  !
 ! D37   D(5,7,8,19)           -33.9928         calculate D2E/DX2 analytically  !
 ! D38   D(11,7,8,9)           -29.3538         calculate D2E/DX2 analytically  !
 ! D39   D(11,7,8,18)         -151.545          calculate D2E/DX2 analytically  !
 ! D40   D(11,7,8,19)           89.7155         calculate D2E/DX2 analytically  !
 ! D41   D(17,7,8,9)            85.7689         calculate D2E/DX2 analytically  !
 ! D42   D(17,7,8,18)          -36.4223         calculate D2E/DX2 analytically  !
 ! D43   D(17,7,8,19)         -155.1618         calculate D2E/DX2 analytically  !
 ! D44   D(5,7,11,10)          170.0977         calculate D2E/DX2 analytically  !
 ! D45   D(5,7,11,12)          -66.7898         calculate D2E/DX2 analytically  !
 ! D46   D(5,7,11,36)           58.7131         calculate D2E/DX2 analytically  !
 ! D47   D(8,7,11,10)           44.8334         calculate D2E/DX2 analytically  !
 ! D48   D(8,7,11,12)          167.9458         calculate D2E/DX2 analytically  !
 ! D49   D(8,7,11,36)          -66.5513         calculate D2E/DX2 analytically  !
 ! D50   D(17,7,11,10)         -70.471          calculate D2E/DX2 analytically  !
 ! D51   D(17,7,11,12)          52.6415         calculate D2E/DX2 analytically  !
 ! D52   D(17,7,11,36)         178.1444         calculate D2E/DX2 analytically  !
 ! D53   D(7,8,9,10)             3.9022         calculate D2E/DX2 analytically  !
 ! D54   D(7,8,9,20)          -116.6105         calculate D2E/DX2 analytically  !
 ! D55   D(7,8,9,21)           123.5199         calculate D2E/DX2 analytically  !
 ! D56   D(18,8,9,10)          124.6106         calculate D2E/DX2 analytically  !
 ! D57   D(18,8,9,20)            4.0978         calculate D2E/DX2 analytically  !
 ! D58   D(18,8,9,21)         -115.7717         calculate D2E/DX2 analytically  !
 ! D59   D(19,8,9,10)         -114.6618         calculate D2E/DX2 analytically  !
 ! D60   D(19,8,9,20)          124.8254         calculate D2E/DX2 analytically  !
 ! D61   D(19,8,9,21)            4.9559         calculate D2E/DX2 analytically  !
 ! D62   D(8,9,10,11)           23.0524         calculate D2E/DX2 analytically  !
 ! D63   D(8,9,10,22)          -95.1793         calculate D2E/DX2 analytically  !
 ! D64   D(8,9,10,23)          143.2086         calculate D2E/DX2 analytically  !
 ! D65   D(20,9,10,11)         144.3765         calculate D2E/DX2 analytically  !
 ! D66   D(20,9,10,22)          26.1448         calculate D2E/DX2 analytically  !
 ! D67   D(20,9,10,23)         -95.4673         calculate D2E/DX2 analytically  !
 ! D68   D(21,9,10,11)         -96.2515         calculate D2E/DX2 analytically  !
 ! D69   D(21,9,10,22)         145.5168         calculate D2E/DX2 analytically  !
 ! D70   D(21,9,10,23)          23.9048         calculate D2E/DX2 analytically  !
 ! D71   D(9,10,11,7)          -42.535          calculate D2E/DX2 analytically  !
 ! D72   D(9,10,11,12)        -166.0828         calculate D2E/DX2 analytically  !
 ! D73   D(9,10,11,36)          77.2098         calculate D2E/DX2 analytically  !
 ! D74   D(22,10,11,7)          76.3213         calculate D2E/DX2 analytically  !
 ! D75   D(22,10,11,12)        -47.2266         calculate D2E/DX2 analytically  !
 ! D76   D(22,10,11,36)       -163.934          calculate D2E/DX2 analytically  !
 ! D77   D(23,10,11,7)        -165.1852         calculate D2E/DX2 analytically  !
 ! D78   D(23,10,11,12)         71.2669         calculate D2E/DX2 analytically  !
 ! D79   D(23,10,11,36)        -45.4405         calculate D2E/DX2 analytically  !
 ! D80   D(7,11,12,24)         -57.7731         calculate D2E/DX2 analytically  !
 ! D81   D(7,11,12,25)        -178.0225         calculate D2E/DX2 analytically  !
 ! D82   D(7,11,12,26)          63.1602         calculate D2E/DX2 analytically  !
 ! D83   D(10,11,12,24)         59.9172         calculate D2E/DX2 analytically  !
 ! D84   D(10,11,12,25)        -60.3322         calculate D2E/DX2 analytically  !
 ! D85   D(10,11,12,26)       -179.1494         calculate D2E/DX2 analytically  !
 ! D86   D(36,11,12,24)        173.4191         calculate D2E/DX2 analytically  !
 ! D87   D(36,11,12,25)         53.1698         calculate D2E/DX2 analytically  !
 ! D88   D(36,11,12,26)        -65.6475         calculate D2E/DX2 analytically  !
 ! D89   D(7,11,28,31)         121.8604         calculate D2E/DX2 analytically  !
 ! D90   D(7,11,28,35)         -81.7029         calculate D2E/DX2 analytically  !
 ! D91   D(10,11,28,31)         10.446          calculate D2E/DX2 analytically  !
 ! D92   D(10,11,28,35)        166.8826         calculate D2E/DX2 analytically  !
 ! D93   D(12,11,28,31)       -109.983          calculate D2E/DX2 analytically  !
 ! D94   D(12,11,28,35)         46.4537         calculate D2E/DX2 analytically  !
 ! D95   D(30,27,29,32)       -139.3219         calculate D2E/DX2 analytically  !
 ! D96   D(30,27,29,35)         94.1124         calculate D2E/DX2 analytically  !
 ! D97   D(33,27,29,32)         92.996          calculate D2E/DX2 analytically  !
 ! D98   D(33,27,29,35)        -33.5697         calculate D2E/DX2 analytically  !
 ! D99   D(31,28,29,32)         93.7324         calculate D2E/DX2 analytically  !
 ! D100  D(31,28,29,34)       -134.647          calculate D2E/DX2 analytically  !
 ! D101  D(36,28,29,32)        -61.5381         calculate D2E/DX2 analytically  !
 ! D102  D(36,28,29,34)         70.0824         calculate D2E/DX2 analytically  !
 ! D103  D(34,29,37,38)         -1.9396         calculate D2E/DX2 analytically  !
 ! D104  D(34,29,37,39)        135.4372         calculate D2E/DX2 analytically  !
 ! D105  D(35,29,37,38)        129.1444         calculate D2E/DX2 analytically  !
 ! D106  D(35,29,37,39)        -93.4788         calculate D2E/DX2 analytically  !
 --------------------------------------------------------------------------------
 Trust Radius=5.00D-02 FncErr=1.00D-07 GrdErr=1.00D-06 EigMax=2.50D+02 EigMin=1.00D-04
 Number of steps in this run=    233 maximum allowed number of steps=    234.
 Search for a saddle point of order  1.
 GradGradGradGradGradGradGradGradGradGradGradGradGradGradGradGradGradGrad

                          Input orientation:                          
 ---------------------------------------------------------------------
 Center     Atomic      Atomic             Coordinates (Angstroms)
 Number     Number       Type             X           Y           Z
 ---------------------------------------------------------------------
      1          7           0       -1.255425    1.946989   -0.533216
      2          6           0       -1.176032    3.078377    0.179898
      3          6           0       -0.043640    3.401929    0.913747
      4          6           0        1.028768    2.511783    0.916262
      5          6           0        0.958842    1.334783    0.171473
      6          6           0       -0.214307    1.108009   -0.546158
      7          6           0        2.092773    0.338783    0.142839
      8          6           0        2.710163    0.080547   -1.242118
      9          6           0        3.276105   -1.356485   -1.147071
     10          6           0        2.852306   -1.844715    0.245390
     11          7           0        1.688295   -1.009952    0.583145
     12          6           0        1.321975   -1.082536    1.993193
     13          1           0       -2.047207    3.732101    0.156918
     14          1           0       -0.008290    4.329521    1.481303
     15          1           0        1.922643    2.735344    1.499680
     16          1           0       -0.333305    0.210140   -1.152948
     17          1           0        2.883553    0.709805    0.823268
     18          1           0        3.473425    0.829718   -1.476196
     19          1           0        1.938329    0.146362   -2.018019
     20          1           0        4.364546   -1.382682   -1.259226
     21          1           0        2.851997   -1.991045   -1.933277
     22          1           0        3.659427   -1.681179    0.981818
     23          1           0        2.579640   -2.906862    0.280923
     24          1           0        2.147295   -0.748406    2.646922
     25          1           0        1.069033   -2.117464    2.251194
     26          1           0        0.442758   -0.455523    2.184550
     27          8           0       -3.284038    0.717337   -1.432190
     28          8           0       -0.303734   -2.097330   -0.903666
     29          8           0       -2.843374   -1.572282   -0.743582
     30          1           0       -3.496955    0.842866   -2.362308
     31          1           0        0.005142   -2.926877   -1.273631
     32          1           0       -3.227043   -1.819895    0.126473
     33          1           0       -2.479986    1.345610   -1.121427
     34          1           0       -3.113694   -0.283302   -1.174199
     35          1           0       -1.877565   -1.816362   -0.755293
     36          1           0        0.431551   -1.713647   -0.335728
     37          8           0       -3.868068   -2.311491    1.631297
     38          1           0       -4.380859   -1.733378    2.203097
     39          1           0       -4.282541   -3.176818    1.697003
 ---------------------------------------------------------------------
                    Distance matrix (angstroms):
                    1          2          3          4          5
     1  N    0.000000
     2  C    1.339729   0.000000
     3  C    2.383060   1.387635   0.000000
     4  C    2.763606   2.392573   1.393709   0.000000
     5  C    2.402990   2.756425   2.414339   1.394607   0.000000
     6  C    1.337154   2.309637   2.724430   2.377917   1.393807
     7  C    3.775421   4.265189   3.813322   2.540122   1.509515
     8  C    4.439824   5.109954   4.823149   3.660137   2.576523
     9  C    5.641323   6.422645   6.157124   4.926598   3.788296
    10  C    5.644174   6.361496   6.029965   4.770161   3.701335
    11  N    4.319172   5.008135   4.751167   3.598411   2.489851
    12  C    4.712086   5.180857   4.810461   3.763626   3.048600
    13  H    2.071190   1.089417   2.167045   3.395203   3.844955
    14  H    3.360073   2.150032   1.088024   2.167702   3.408732
    15  H    3.854126   3.385452   2.157295   1.090582   2.157456
    16  H    2.061800   3.273141   3.813483   3.381484   2.165308
    17  H    4.527893   4.743869   3.977961   2.587663   2.126017
    18  H    4.949700   5.423704   4.969692   3.811764   3.048447
    19  H    3.955624   4.809033   4.808552   3.877180   2.676867
    20  H    6.572509   7.257419   6.859039   5.570190   4.585884
    21  H    5.859966   6.810989   6.750883   5.632006   4.367510
    22  H    6.294021   6.832138   6.289302   4.950313   4.128661
    23  H    6.239424   7.066708   6.861699   5.671911   4.542083
    24  H    5.381165   5.636930   5.002936   3.856828   3.446730
    25  H    5.447552   6.027217   5.787098   4.818049   4.031797
    26  H    4.005264   4.373507   4.090411   3.279766   2.742994
    27  O    2.536823   3.552045   4.817742   5.228342   4.577664
    28  O    4.171267   5.359380   5.797628   5.131435   3.811748
    29  O    3.866666   5.026079   5.943738   5.867551   4.872905
    30  H    3.096631   4.104510   5.404325   5.832364   5.149384
    31  H    5.088400   6.290548   6.696326   5.951677   4.599958
    32  H    4.302544   5.310609   6.166141   6.123653   5.241722
    33  H    1.485664   2.529076   3.782349   4.221788   3.673860
    34  H    2.972915   4.109623   5.231221   5.416874   4.584166
    35  H    3.820888   5.032415   5.777503   5.474825   4.339794
    36  H    4.035486   5.080717   5.287354   4.447292   3.134998
    37  O    5.444784   6.197120   6.912619   6.910445   6.222978
    38  H    5.549851   6.125132   6.844360   6.995813   6.484868
    39  H    6.355368   7.146990   7.865220   7.821748   7.081940
                    6          7          8          9         10
     6  C    0.000000
     7  C    2.527656   0.000000
     8  C    3.176879   1.538168   0.000000
     9  C    4.314835   2.436817   1.547380   0.000000
    10  C    4.330040   2.314103   2.437113   1.535227   0.000000
    11  N    3.062838   1.475316   2.359023   2.373789   1.471676
    12  C    3.688760   2.457252   3.707704   3.708764   2.444922
    13  H    3.277148   5.352966   6.158224   7.478753   7.423876
    14  H    3.811979   4.704460   5.732433   7.072925   6.916045
    15  H    3.376422   2.759251   3.896869   5.057689   4.838849
    16  H    1.090194   2.753446   3.047531   3.934741   4.040532
    17  H    3.410371   1.107237   2.166068   2.881994   2.619254
    18  H    3.813369   2.183688   1.094814   2.219627   3.240716
    19  H    2.779385   2.174899   1.096395   2.192429   3.150042
    20  H    5.260979   3.176504   2.208691   1.094518   2.182708
    21  H    4.574981   3.211663   2.188449   1.095744   2.183576
    22  H    5.011995   2.690453   2.991767   2.187357   1.104769
    23  H    4.960785   3.284862   3.355786   2.219887   1.097163
    24  H    4.383971   2.730455   4.016045   4.004792   2.732451
    25  H    4.458230   3.395048   4.441598   4.122919   2.697722
    26  H    3.214519   2.742637   4.143736   4.465343   3.390592
    27  O    3.218839   5.615525   6.030927   6.886037   6.858068
    28  O    3.226454   3.573943   3.733801   3.663788   3.368194
    29  O    3.759645   5.366885   5.815682   6.136562   5.787319
    30  H    3.760915   6.146131   6.353288   7.224146   7.371316
    31  H    4.105811   4.126636   4.045087   3.630613   3.403651
    32  H    4.254601   5.741132   6.382408   6.642861   6.080563
    33  H    2.349615   4.849968   5.343463   6.358817   6.362366
    34  H    3.276679   5.406374   5.835607   6.479351   6.328222
    35  H    3.370773   4.605961   4.988237   5.188959   4.834651
    36  H    2.902267   2.683497   3.038544   2.979485   2.492976
    37  O    5.457496   6.691120   7.566471   7.724673   6.877648
    38  H    5.743870   7.102565   8.089649   8.366288   7.494244
    39  H    6.319972   7.444428   8.255106   8.278617   7.401873
                   11         12         13         14         15
    11  N    0.000000
    12  C    1.458662   0.000000
    13  H    6.051670   6.156624   0.000000
    14  H    5.674069   5.596606   2.503615   0.000000
    15  H    3.862926   3.896224   4.307696   2.504045   0.000000
    16  H    2.930787   3.782746   4.130063   4.900430   4.301441
    17  H    2.108048   2.649479   5.821571   4.679542   2.341728
    18  H    3.288155   4.508005   6.447346   5.754803   3.859038
    19  H    2.857557   4.240272   5.785531   5.790803   4.367755
    20  H    3.270409   4.463805   8.323283   7.698146   5.525630
    21  H    2.940940   4.310861   7.818281   7.732409   5.915036
    22  H    2.120105   2.616283   7.908839   7.059047   4.773916
    23  H    2.117570   2.800313   8.093140   7.778402   5.809604
    24  H    2.130320   1.104607   6.623361   5.638312   3.674663
    25  H    2.095819   1.096184   6.950853   6.581563   4.984292
    26  H    2.103153   1.096716   5.277065   4.857432   3.583398
    27  O    5.636417   6.015659   3.625440   5.680391   6.306960
    28  O    2.713149   3.473403   6.176310   6.861471   5.838456
    29  O    4.755254   5.007986   5.438866   6.915135   6.804615
    30  H    6.244633   6.774928   4.098286   6.253071   6.918704
    31  H    3.155190   3.975900   7.113410   7.761775   6.590054
    32  H    5.002510   4.972113   5.676055   7.071863   7.011075
    33  H    5.082205   5.481939   2.741679   4.667677   5.308927
    34  H    5.164821   5.508748   4.362652   6.162253   6.451864
    35  H    3.893208   4.281324   5.625509   6.802090   6.343856
    36  H    1.708485   2.571970   6.003592   6.325736   5.038412
    37  O    5.802223   5.345825   6.481846   7.682670   7.682461
    38  H    6.323150   5.743690   6.285240   7.509933   7.758763
    39  H    6.448788   5.990354   7.423055   8.640652   8.573034
                   16         17         18         19         20
    16  H    0.000000
    17  H    3.808316   0.000000
    18  H    3.870344   2.376944   0.000000
    19  H    2.431612   3.046938   1.765522   0.000000
    20  H    4.961671   3.302821   2.394971   2.966525   0.000000
    21  H    3.949719   3.859291   2.924346   2.326044   1.764158
    22  H    4.906753   2.518715   3.518669   3.911663   2.368242
    23  H    4.500771   3.669711   4.224731   3.875383   2.807325
    24  H    4.638017   2.448299   4.609685   4.754572   4.536133
    25  H    4.355740   3.650330   5.325450   4.909864   4.870663
    26  H    3.490598   3.027963   4.923195   4.501176   5.300909
    27  O    3.007000   6.567064   6.758541   5.286050   7.933526
    28  O    2.321085   4.584878   4.812726   3.361961   4.736030
    29  O    3.105649   6.360867   6.797667   5.238570   7.228828
    30  H    3.445515   7.132775   7.026490   5.490534   8.244577
    31  H    3.157529   5.089960   5.116837   3.706228   4.624840
    32  H    3.759213   6.650134   7.381414   5.928413   7.729395
    33  H    2.428688   5.740526   5.986243   4.665145   7.369544
    34  H    2.823916   6.398680   6.687313   5.139998   7.559096
    35  H    2.578678   5.616193   6.012864   4.473009   6.277418
    36  H    2.225716   3.637129   4.125818   2.925768   4.053497
    37  O    5.158022   7.440801   8.568619   7.285108   8.774608
    38  H    5.605622   7.787474   9.044138   7.828370   9.412374
    39  H    5.932130   8.198912   9.288516   7.971458   9.312912
                   21         22         23         24         25
    21  H    0.000000
    22  H    3.040681   0.000000
    23  H    2.411552   1.777496   0.000000
    24  H    4.797810   2.434991   3.231688   0.000000
    25  H    4.550246   2.917499   2.605197   1.787056   0.000000
    26  H    5.011862   3.646335   3.768172   1.790255   1.777276
    27  O    6.725871   7.732530   7.102978   6.948880   6.368096
    28  O    3.321149   4.408501   3.220627   4.520378   3.440645
    29  O    5.833351   6.728691   5.678010   6.089422   4.957099
    30  H    6.965939   8.292634   7.613944   7.712463   7.134157
    31  H    3.068468   4.471310   3.007504   4.970442   3.769802
    32  H    6.420794   6.940773   5.909562   6.031937   4.802005
    33  H    6.342114   7.160830   6.756472   6.324325   5.996915
    34  H    6.251564   7.244145   6.435410   6.518841   5.708999
    35  H    4.877183   5.804663   4.704212   5.377276   4.220434
    36  H    2.913361   3.486569   2.533438   3.573747   2.694739
    37  O    7.613682   7.581708   6.614447   6.297565   4.979647
    38  H    8.336077   8.132678   7.315761   6.616944   5.463621
    39  H    8.092381   8.113155   7.011967   6.938467   5.483494
                   26         27         28         29         30
    26  H    0.000000
    27  O    5.324041   0.000000
    28  O    3.576291   4.133267   0.000000
    29  O    4.540900   2.431197   2.598283   0.000000
    30  H    6.154760   0.962398   4.579197   2.979997   0.000000
    31  H    4.272951   4.911633   0.959389   3.198425   5.259360
    32  H    4.423192   2.978292   3.111895   0.982604   3.654748
    33  H    4.766130   1.066677   4.078888   2.964610   1.681298
    34  H    4.894814   1.047308   3.355557   1.385631   1.681293
    35  H    3.984778   2.975901   1.605584   0.996243   3.503772
    36  H    2.816878   4.573567   1.005192   3.303250   5.106461
    37  O    4.725878   4.347395   4.379084   2.690070   5.102605
    38  H    4.990044   4.519329   5.138812   3.327571   5.316130
    39  H    5.474632   5.094438   4.874390   3.256101   5.766542
                   31         32         33         34         35
    31  H    0.000000
    32  H    3.692251   0.000000
    33  H    4.945015   3.483643   0.000000
    34  H    4.089684   2.016361   1.748635   0.000000
    35  H    2.246442   1.612022   3.239604   2.013398   0.000000
    36  H    1.591670   3.689204   4.295745   3.913781   2.349170
    37  O    4.880478   1.707945   4.783163   3.543083   3.146914
    38  H    5.722681   2.377213   4.913852   3.887744   3.876266
    39  H    5.222199   2.328493   5.625398   4.240571   3.694388
                   36         37         38         39
    36  H    0.000000
    37  O    4.765850   0.000000
    38  H    5.441076   0.961314   0.000000
    39  H    5.338120   0.961715   1.532748   0.000000
 Stoichiometry    C10H23N2O4(1+)
 Framework group  C1[X(C10H23N2O4)]
 Deg. of freedom   111
 Full point group                 C1      NOp   1
 Largest Abelian subgroup         C1      NOp   1
 Largest concise Abelian subgroup C1      NOp   1
                         Standard orientation:                         
 ---------------------------------------------------------------------
 Center     Atomic      Atomic             Coordinates (Angstroms)
 Number     Number       Type             X           Y           Z
 ---------------------------------------------------------------------
      1          7           0       -1.255425    1.946989   -0.533216
      2          6           0       -1.176032    3.078377    0.179898
      3          6           0       -0.043640    3.401929    0.913747
      4          6           0        1.028768    2.511783    0.916262
      5          6           0        0.958842    1.334783    0.171473
      6          6           0       -0.214307    1.108009   -0.546158
      7          6           0        2.092773    0.338783    0.142839
      8          6           0        2.710163    0.080547   -1.242118
      9          6           0        3.276105   -1.356485   -1.147071
     10          6           0        2.852306   -1.844715    0.245390
     11          7           0        1.688295   -1.009952    0.583145
     12          6           0        1.321975   -1.082536    1.993193
     13          1           0       -2.047207    3.732101    0.156918
     14          1           0       -0.008290    4.329521    1.481303
     15          1           0        1.922643    2.735344    1.499680
     16          1           0       -0.333305    0.210140   -1.152948
     17          1           0        2.883553    0.709805    0.823268
     18          1           0        3.473425    0.829718   -1.476196
     19          1           0        1.938329    0.146362   -2.018019
     20          1           0        4.364546   -1.382682   -1.259226
     21          1           0        2.851997   -1.991045   -1.933277
     22          1           0        3.659427   -1.681179    0.981818
     23          1           0        2.579640   -2.906862    0.280923
     24          1           0        2.147295   -0.748406    2.646922
     25          1           0        1.069033   -2.117464    2.251194
     26          1           0        0.442758   -0.455523    2.184550
     27          8           0       -3.284038    0.717337   -1.432190
     28          8           0       -0.303734   -2.097330   -0.903666
     29          8           0       -2.843374   -1.572282   -0.743582
     30          1           0       -3.496955    0.842866   -2.362308
     31          1           0        0.005142   -2.926877   -1.273631
     32          1           0       -3.227043   -1.819895    0.126473
     33          1           0       -2.479986    1.345610   -1.121427
     34          1           0       -3.113694   -0.283302   -1.174199
     35          1           0       -1.877565   -1.816362   -0.755293
     36          1           0        0.431551   -1.713647   -0.335728
     37          8           0       -3.868068   -2.311491    1.631297
     38          1           0       -4.380859   -1.733378    2.203097
     39          1           0       -4.282541   -3.176818    1.697003
 ---------------------------------------------------------------------
 Rotational constants (GHZ):           0.4680427           0.3442837           0.2512200
 Standard basis: Aug-CC-pVDZ (5D, 7F)
 There are   607 symmetry adapted cartesian basis functions of A   symmetry.
 There are   575 symmetry adapted basis functions of A   symmetry.
   575 basis functions,   941 primitive gaussians,   607 cartesian basis functions
    64 alpha electrons       64 beta electrons
       nuclear repulsion energy      1235.3129135164 Hartrees.
 NAtoms=   39 NActive=   39 NUniq=   39 SFac= 1.00D+00 NAtFMM=   60 NAOKFM=F Big=F
 Integral buffers will be    131072 words long.
 Raffenetti 2 integral format.
 Two-electron integral symmetry is turned on.
 Nuclear repulsion after empirical dispersion term =     1235.2829520945 Hartrees.
 One-electron integrals computed using PRISM.
 NBasis=   575 RedAO= T EigKep=  2.02D-06  NBF=   575
 NBsUse=   575 1.00D-06 EigRej= -1.00D+00 NBFU=   575
 ExpMin= 2.97D-02 ExpMax= 1.17D+04 ExpMxC= 4.01D+02 IAcc=3 IRadAn=         5 AccDes= 0.00D+00
 Harris functional with IExCor= 4639 and IRadAn=       5 diagonalized for initial guess.
 HarFok:  IExCor= 4639 AccDes= 0.00D+00 IRadAn=         5 IDoV= 1 UseB2=F ITyADJ=14
 ICtDFT=  3500011 ScaDFX=  1.000000  1.000000  1.000000  1.000000
 FoFCou: FMM=F IPFlag=           0 FMFlag=      100000 FMFlg1=           0
         NFxFlg=           0 DoJE=T BraDBF=F KetDBF=T FulRan=T
         wScrn=  0.000000 ICntrl=       500 IOpCl=  0 I1Cent=   200000004 NGrid=           0
         NMat0=    1 NMatS0=      1 NMatT0=    0 NMatD0=    1 NMtDS0=    0 NMtDT0=    0
 Petite list used in FoFCou.
 Requested convergence on RMS density matrix=1.00D-08 within 128 cycles.
 Requested convergence on MAX density matrix=1.00D-06.
 Requested convergence on             energy=1.00D-06.
 No special actions if energy rises.
 SCF Done:  E(RwB97XD) =  -805.018073171     A.U. after   16 cycles
            NFock= 16  Conv=0.13D-08     -V/T= 2.0061
 DoSCS=F DFT=T ScalE2(SS,OS)=  1.000000  1.000000
 Range of M.O.s used for correlation:     1   575
 NBasis=   575 NAE=    64 NBE=    64 NFC=     0 NFV=     0
 NROrb=    575 NOA=    64 NOB=    64 NVA=   511 NVB=   511

 **** Warning!!: The largest alpha MO coefficient is  0.10011639D+03

 Symmetrizing basis deriv contribution to polar:
 IMax=3 JMax=2 DiffMx= 0.00D+00
 G2DrvN: will do    40 centers at a time, making    1 passes.
 Calling FoFCou, ICntrl=  3107 FMM=F I1Cent=   0 AccDes= 0.00D+00.
 End of G2Drv F.D. properties file   721 does not exist.
 End of G2Drv F.D. properties file   722 does not exist.
 End of G2Drv F.D. properties file   788 does not exist.
          IDoAtm=111111111111111111111111111111111111111
          Differentiating once with respect to electric field.
                with respect to dipole field.
          Differentiating once with respect to nuclear coordinates.
 CalDSu exits because no D1Ps are significant.
          There are   120 degrees of freedom in the 1st order CPHF.  IDoFFX=6 NUNeed=     3.
    117 vectors produced by pass  0 Test12= 3.27D-14 1.00D-09 XBig12= 7.19D+01 3.46D+00.
 AX will form   117 AO Fock derivatives at one time.
    117 vectors produced by pass  1 Test12= 3.27D-14 1.00D-09 XBig12= 1.05D+01 7.38D-01.
    117 vectors produced by pass  2 Test12= 3.27D-14 1.00D-09 XBig12= 2.84D-01 9.05D-02.
    117 vectors produced by pass  3 Test12= 3.27D-14 1.00D-09 XBig12= 2.55D-03 4.90D-03.
    117 vectors produced by pass  4 Test12= 3.27D-14 1.00D-09 XBig12= 2.25D-05 4.12D-04.
    117 vectors produced by pass  5 Test12= 3.27D-14 1.00D-09 XBig12= 1.43D-07 2.83D-05.
    115 vectors produced by pass  6 Test12= 3.27D-14 1.00D-09 XBig12= 7.74D-10 1.98D-06.
     49 vectors produced by pass  7 Test12= 3.27D-14 1.00D-09 XBig12= 3.79D-12 1.29D-07.
      3 vectors produced by pass  8 Test12= 3.27D-14 1.00D-09 XBig12= 2.06D-14 7.40D-09.
      3 vectors produced by pass  9 Test12= 3.27D-14 1.00D-09 XBig12= 1.63D-15 4.09D-09.
 InvSVY:  IOpt=1 It=  1 EMax= 2.13D-14
 Solved reduced A of dimension   872 with   120 vectors.
 Isotropic polarizability for W=    0.000000      163.18 Bohr**3.
 End of Minotr F.D. properties file   721 does not exist.
 End of Minotr F.D. properties file   722 does not exist.
 End of Minotr F.D. properties file   788 does not exist.

 **********************************************************************

            Population analysis using the SCF density.

 **********************************************************************

 Orbital symmetries:
       Occupied  (A) (A) (A) (A) (A) (A) (A) (A) (A) (A) (A) (A)
                 (A) (A) (A) (A) (A) (A) (A) (A) (A) (A) (A) (A)
                 (A) (A) (A) (A) (A) (A) (A) (A) (A) (A) (A) (A)
                 (A) (A) (A) (A) (A) (A) (A) (A) (A) (A) (A) (A)
                 (A) (A) (A) (A) (A) (A) (A) (A) (A) (A) (A) (A)
                 (A) (A) (A) (A)
       Virtual   (A) (A) (A) (A) (A) (A) (A) (A) (A) (A) (A) (A)
                 (A) (A) (A) (A) (A) (A) (A) (A) (A) (A) (A) (A)
                 (A) (A) (A) (A) (A) (A) (A) (A) (A) (A) (A) (A)
                 (A) (A) (A) (A) (A) (A) (A) (A) (A) (A) (A) (A)
                 (A) (A) (A) (A) (A) (A) (A) (A) (A) (A) (A) (A)
                 (A) (A) (A) (A) (A) (A) (A) (A) (A) (A) (A) (A)
                 (A) (A) (A) (A) (A) (A) (A) (A) (A) (A) (A) (A)
                 (A) (A) (A) (A) (A) (A) (A) (A) (A) (A) (A) (A)
                 (A) (A) (A) (A) (A) (A) (A) (A) (A) (A) (A) (A)
                 (A) (A) (A) (A) (A) (A) (A) (A) (A) (A) (A) (A)
                 (A) (A) (A) (A) (A) (A) (A) (A) (A) (A) (A) (A)
                 (A) (A) (A) (A) (A) (A) (A) (A) (A) (A) (A) (A)
                 (A) (A) (A) (A) (A) (A) (A) (A) (A) (A) (A) (A)
                 (A) (A) (A) (A) (A) (A) (A) (A) (A) (A) (A) (A)
                 (A) (A) (A) (A) (A) (A) (A) (A) (A) (A) (A) (A)
                 (A) (A) (A) (A) (A) (A) (A) (A) (A) (A) (A) (A)
                 (A) (A) (A) (A) (A) (A) (A) (A) (A) (A) (A) (A)
                 (A) (A) (A) (A) (A) (A) (A) (A) (A) (A) (A) (A)
                 (A) (A) (A) (A) (A) (A) (A) (A) (A) (A) (A) (A)
                 (A) (A) (A) (A) (A) (A) (A) (A) (A) (A) (A) (A)
                 (A) (A) (A) (A) (A) (A) (A) (A) (A) (A) (A) (A)
                 (A) (A) (A) (A) (A) (A) (A) (A) (A) (A) (A) (A)
                 (A) (A) (A) (A) (A) (A) (A) (A) (A) (A) (A) (A)
                 (A) (A) (A) (A) (A) (A) (A) (A) (A) (A) (A) (A)
                 (A) (A) (A) (A) (A) (A) (A) (A) (A) (A) (A) (A)
                 (A) (A) (A) (A) (A) (A) (A) (A) (A) (A) (A) (A)
                 (A) (A) (A) (A) (A) (A) (A) (A) (A) (A) (A) (A)
                 (A) (A) (A) (A) (A) (A) (A) (A) (A) (A) (A) (A)
                 (A) (A) (A) (A) (A) (A) (A) (A) (A) (A) (A) (A)
                 (A) (A) (A) (A) (A) (A) (A) (A) (A) (A) (A) (A)
                 (A) (A) (A) (A) (A) (A) (A) (A) (A) (A) (A) (A)
                 (A) (A) (A) (A) (A) (A) (A) (A) (A) (A) (A) (A)
                 (A) (A) (A) (A) (A) (A) (A) (A) (A) (A) (A) (A)
                 (A) (A) (A) (A) (A) (A) (A) (A) (A) (A) (A) (A)
                 (A) (A) (A) (A) (A) (A) (A) (A) (A) (A) (A) (A)
                 (A) (A) (A) (A) (A) (A) (A) (A) (A) (A) (A) (A)
                 (A) (A) (A) (A) (A) (A) (A) (A) (A) (A) (A) (A)
                 (A) (A) (A) (A) (A) (A) (A) (A) (A) (A) (A) (A)
                 (A) (A) (A) (A) (A) (A) (A) (A) (A) (A) (A) (A)
                 (A) (A) (A) (A) (A) (A) (A) (A) (A) (A) (A) (A)
                 (A) (A) (A) (A) (A) (A) (A) (A) (A) (A) (A) (A)
                 (A) (A) (A) (A) (A) (A) (A) (A) (A) (A) (A) (A)
                 (A) (A) (A) (A) (A) (A) (A)
 The electronic state is 1-A.
 Alpha  occ. eigenvalues --  -19.45895 -19.41062 -19.38259 -19.38158 -14.60845
 Alpha  occ. eigenvalues --  -14.57758 -10.47247 -10.47078 -10.45325 -10.44955
 Alpha  occ. eigenvalues --  -10.44611 -10.43955 -10.43127 -10.42774 -10.40739
 Alpha  occ. eigenvalues --  -10.40198  -1.31861  -1.25539  -1.23294  -1.21549
 Alpha  occ. eigenvalues --   -1.19850  -1.16842  -1.05058  -1.01364  -0.99804
 Alpha  occ. eigenvalues --   -0.94170  -0.88934  -0.86802  -0.85900  -0.81808
 Alpha  occ. eigenvalues --   -0.80595  -0.79215  -0.78945  -0.75753  -0.75336
 Alpha  occ. eigenvalues --   -0.75149  -0.72984  -0.71813  -0.70178  -0.68863
 Alpha  occ. eigenvalues --   -0.66198  -0.65349  -0.65230  -0.63754  -0.63253
 Alpha  occ. eigenvalues --   -0.63130  -0.61929  -0.61093  -0.60127  -0.59506
 Alpha  occ. eigenvalues --   -0.58288  -0.57271  -0.56492  -0.55389  -0.54835
 Alpha  occ. eigenvalues --   -0.54050  -0.53483  -0.52871  -0.52248  -0.51865
 Alpha  occ. eigenvalues --   -0.50601  -0.50163  -0.46701  -0.44240
 Alpha virt. eigenvalues --   -0.10325  -0.08533  -0.06768  -0.05407  -0.04816
 Alpha virt. eigenvalues --   -0.04740  -0.03381  -0.03132  -0.02691  -0.02543
 Alpha virt. eigenvalues --   -0.02058  -0.01237  -0.00896  -0.00650  -0.00320
 Alpha virt. eigenvalues --   -0.00048   0.00282   0.00906   0.01291   0.01661
 Alpha virt. eigenvalues --    0.01817   0.02346   0.02446   0.02794   0.03179
 Alpha virt. eigenvalues --    0.03335   0.04009   0.04291   0.04836   0.04931
 Alpha virt. eigenvalues --    0.05354   0.05583   0.05773   0.06025   0.06415
 Alpha virt. eigenvalues --    0.06638   0.06803   0.07115   0.07324   0.07612
 Alpha virt. eigenvalues --    0.07725   0.07968   0.08241   0.08568   0.08907
 Alpha virt. eigenvalues --    0.09153   0.09386   0.09646   0.10157   0.10589
 Alpha virt. eigenvalues --    0.10917   0.11075   0.11390   0.11801   0.12037
 Alpha virt. eigenvalues --    0.12304   0.12436   0.12892   0.13111   0.13618
 Alpha virt. eigenvalues --    0.13868   0.14089   0.14345   0.14642   0.15132
 Alpha virt. eigenvalues --    0.15455   0.15653   0.16051   0.16173   0.16450
 Alpha virt. eigenvalues --    0.16851   0.17001   0.17126   0.17548   0.17828
 Alpha virt. eigenvalues --    0.18269   0.18429   0.18744   0.18823   0.18932
 Alpha virt. eigenvalues --    0.19407   0.19754   0.19931   0.20162   0.20464
 Alpha virt. eigenvalues --    0.21076   0.21382   0.21619   0.21739   0.22589
 Alpha virt. eigenvalues --    0.22656   0.23211   0.23449   0.23900   0.24447
 Alpha virt. eigenvalues --    0.24642   0.25190   0.25357   0.25742   0.26052
 Alpha virt. eigenvalues --    0.26313   0.26513   0.27193   0.27269   0.27288
 Alpha virt. eigenvalues --    0.27839   0.28053   0.28301   0.28717   0.29434
 Alpha virt. eigenvalues --    0.29588   0.29909   0.30320   0.30599   0.31097
 Alpha virt. eigenvalues --    0.31247   0.31798   0.32358   0.32656   0.32677
 Alpha virt. eigenvalues --    0.33163   0.33458   0.33971   0.34090   0.35171
 Alpha virt. eigenvalues --    0.35414   0.35687   0.36158   0.36773   0.37286
 Alpha virt. eigenvalues --    0.37795   0.38136   0.38493   0.38705   0.39136
 Alpha virt. eigenvalues --    0.39228   0.39464   0.40155   0.40454   0.40823
 Alpha virt. eigenvalues --    0.41151   0.41762   0.42535   0.42971   0.43211
 Alpha virt. eigenvalues --    0.43588   0.43905   0.44003   0.44686   0.45021
 Alpha virt. eigenvalues --    0.45445   0.45699   0.46049   0.46554   0.46932
 Alpha virt. eigenvalues --    0.47652   0.48097   0.48314   0.48708   0.49041
 Alpha virt. eigenvalues --    0.49185   0.49540   0.49887   0.50540   0.50857
 Alpha virt. eigenvalues --    0.50995   0.51353   0.51420   0.52080   0.52568
 Alpha virt. eigenvalues --    0.52920   0.53167   0.53949   0.54127   0.54540
 Alpha virt. eigenvalues --    0.54695   0.54866   0.55462   0.55805   0.56260
 Alpha virt. eigenvalues --    0.56329   0.57163   0.58066   0.58180   0.58309
 Alpha virt. eigenvalues --    0.58928   0.59370   0.59611   0.60232   0.60498
 Alpha virt. eigenvalues --    0.60638   0.61284   0.62142   0.62288   0.62757
 Alpha virt. eigenvalues --    0.63246   0.63866   0.63944   0.64303   0.64648
 Alpha virt. eigenvalues --    0.65428   0.66085   0.66920   0.67263   0.67538
 Alpha virt. eigenvalues --    0.68073   0.68244   0.68518   0.69254   0.69890
 Alpha virt. eigenvalues --    0.70610   0.70663   0.70820   0.71373   0.71804
 Alpha virt. eigenvalues --    0.72085   0.72779   0.72916   0.73528   0.74267
 Alpha virt. eigenvalues --    0.74606   0.74816   0.75323   0.75775   0.76014
 Alpha virt. eigenvalues --    0.77060   0.77269   0.77897   0.78221   0.79347
 Alpha virt. eigenvalues --    0.79838   0.79965   0.80390   0.80596   0.81888
 Alpha virt. eigenvalues --    0.82324   0.82770   0.83213   0.84386   0.84784
 Alpha virt. eigenvalues --    0.85268   0.85502   0.86118   0.86665   0.87753
 Alpha virt. eigenvalues --    0.88416   0.89127   0.89384   0.89730   0.91349
 Alpha virt. eigenvalues --    0.91605   0.91935   0.92465   0.93187   0.94138
 Alpha virt. eigenvalues --    0.94508   0.95081   0.95784   0.96626   0.97687
 Alpha virt. eigenvalues --    0.98055   0.98527   0.99730   1.01296   1.01744
 Alpha virt. eigenvalues --    1.02024   1.03590   1.04102   1.04347   1.05088
 Alpha virt. eigenvalues --    1.05828   1.07103   1.07580   1.08452   1.09058
 Alpha virt. eigenvalues --    1.10075   1.10944   1.11446   1.12153   1.12929
 Alpha virt. eigenvalues --    1.13353   1.14550   1.14885   1.15937   1.16481
 Alpha virt. eigenvalues --    1.17695   1.17703   1.19095   1.20003   1.20892
 Alpha virt. eigenvalues --    1.21816   1.22633   1.22998   1.24091   1.24506
 Alpha virt. eigenvalues --    1.25280   1.26348   1.27800   1.28852   1.29192
 Alpha virt. eigenvalues --    1.30522   1.31323   1.32047   1.33270   1.34020
 Alpha virt. eigenvalues --    1.34455   1.35240   1.35379   1.36615   1.37535
 Alpha virt. eigenvalues --    1.38762   1.39681   1.40083   1.41028   1.42289
 Alpha virt. eigenvalues --    1.42846   1.44502   1.44954   1.46051   1.46158
 Alpha virt. eigenvalues --    1.48211   1.48828   1.49484   1.49814   1.51852
 Alpha virt. eigenvalues --    1.52224   1.53771   1.53922   1.54581   1.56069
 Alpha virt. eigenvalues --    1.56758   1.57192   1.59279   1.60449   1.60641
 Alpha virt. eigenvalues --    1.61147   1.62477   1.63020   1.63740   1.64375
 Alpha virt. eigenvalues --    1.64730   1.65473   1.67059   1.67655   1.68325
 Alpha virt. eigenvalues --    1.69252   1.69949   1.70669   1.70939   1.71773
 Alpha virt. eigenvalues --    1.73064   1.73305   1.73461   1.74502   1.75095
 Alpha virt. eigenvalues --    1.75574   1.76542   1.77945   1.78395   1.79198
 Alpha virt. eigenvalues --    1.80250   1.81116   1.82263   1.83115   1.83490
 Alpha virt. eigenvalues --    1.83956   1.84817   1.85061   1.86662   1.87032
 Alpha virt. eigenvalues --    1.87195   1.87849   1.88968   1.89655   1.89853
 Alpha virt. eigenvalues --    1.91244   1.91844   1.93039   1.94172   1.95373
 Alpha virt. eigenvalues --    1.95588   1.96281   1.96579   1.97816   1.99061
 Alpha virt. eigenvalues --    1.99712   2.00803   2.01392   2.02217   2.02364
 Alpha virt. eigenvalues --    2.02894   2.03984   2.06346   2.06730   2.08327
 Alpha virt. eigenvalues --    2.10099   2.10311   2.10832   2.11581   2.12383
 Alpha virt. eigenvalues --    2.12747   2.13869   2.14415   2.15378   2.17213
 Alpha virt. eigenvalues --    2.17727   2.18216   2.18688   2.19630   2.20725
 Alpha virt. eigenvalues --    2.21963   2.22806   2.23340   2.25439   2.26262
 Alpha virt. eigenvalues --    2.27472   2.27867   2.28972   2.30073   2.30128
 Alpha virt. eigenvalues --    2.30590   2.32126   2.33471   2.34487   2.35453
 Alpha virt. eigenvalues --    2.37519   2.38332   2.40337   2.41061   2.41436
 Alpha virt. eigenvalues --    2.42782   2.43525   2.45627   2.46756   2.47596
 Alpha virt. eigenvalues --    2.48818   2.49716   2.51271   2.52168   2.52784
 Alpha virt. eigenvalues --    2.53849   2.55379   2.56464   2.58353   2.58634
 Alpha virt. eigenvalues --    2.59274   2.59991   2.60965   2.62245   2.63422
 Alpha virt. eigenvalues --    2.64773   2.66854   2.68150   2.68416   2.68951
 Alpha virt. eigenvalues --    2.69865   2.70703   2.72903   2.73618   2.74971
 Alpha virt. eigenvalues --    2.75592   2.76784   2.79007   2.80104   2.83444
 Alpha virt. eigenvalues --    2.84618   2.85043   2.85539   2.86395   2.88158
 Alpha virt. eigenvalues --    2.89982   2.91151   2.92313   2.93492   2.93745
 Alpha virt. eigenvalues --    2.98301   2.99792   3.01508   3.03620   3.06323
 Alpha virt. eigenvalues --    3.08255   3.15056   3.16881   3.23606   3.29358
 Alpha virt. eigenvalues --    3.29715   3.32908   3.35501   3.36397   3.38071
 Alpha virt. eigenvalues --    3.40650   3.41323   3.42146   3.43824   3.47196
 Alpha virt. eigenvalues --    3.49307   3.53899   3.62525   3.64598   3.67633
 Alpha virt. eigenvalues --    3.71985   3.78183   3.90266   3.93386   3.95145
 Alpha virt. eigenvalues --    3.97044   4.11762   4.13681   4.16495   4.34578
 Alpha virt. eigenvalues --    4.99240
          Condensed to atoms (all electrons):
               1          2          3          4          5          6
     1  N    8.348487   0.105562   0.214299  -0.408786  -0.521734  -0.860786
     2  C    0.105562  10.239586  -2.676817   1.620110  -1.214420  -1.155379
     3  C    0.214299  -2.676817  11.724007  -4.386873   0.755004  -0.223339
     4  C   -0.408786   1.620110  -4.386873  22.665091  -8.905857  -2.122712
     5  C   -0.521734  -1.214420   0.755004  -8.905857  24.098306  -3.289243
     6  C   -0.860786  -1.155379  -0.223339  -2.122712  -3.289243  16.318278
     7  C    0.926152  -0.828977   0.606103  -1.172572  -9.889853  -1.596696
     8  C   -0.029955  -0.133953   0.033411  -0.132055   0.193716  -0.841397
     9  C    0.011222   0.012324  -0.022282  -0.045782   0.399599  -0.007558
    10  C    0.040204  -0.026744  -0.019698   0.016401  -0.450485  -0.173402
    11  N   -0.112049   0.117906  -0.196840  -0.385197   2.135861   0.385044
    12  C   -0.036298  -0.022561   0.076128  -0.251983   0.750931  -0.015533
    13  H   -0.117284  -0.532642   0.099761   0.197750  -0.005571   0.100105
    14  H   -0.055113   0.411243  -1.174094   0.641790  -0.109607  -0.031561
    15  H   -0.067302  -0.205316   0.672946  -2.508604   1.235326   0.209026
    16  H   -0.001606  -0.209439   0.117223  -0.182901  -0.906861  -1.113513
    17  H    0.011087   0.045268  -0.027718   0.004532   1.050292  -0.306768
    18  H   -0.019736  -0.001413   0.001007  -0.048228   0.415518   0.304486
    19  H    0.030753   0.015440  -0.027943   0.053872   0.011920  -0.232633
    20  H   -0.001844   0.002985  -0.003556  -0.000453   0.011923   0.024600
    21  H    0.001851  -0.002644   0.000901   0.005889  -0.114500  -0.030131
    22  H   -0.001358  -0.002271   0.003877   0.022788   0.163163   0.018231
    23  H    0.002311  -0.000143  -0.001417   0.021563  -0.190845  -0.016699
    24  H   -0.003578   0.016581  -0.024017   0.030987   0.179868   0.015525
    25  H   -0.000539  -0.004336   0.013246  -0.019464  -0.039489  -0.045610
    26  H    0.001277  -0.041159   0.061876  -0.024722   0.054696   0.066664
    27  O   -0.029916   0.052087  -0.023448   0.033447  -0.112882  -0.138390
    28  O    0.001854  -0.014014   0.009201  -0.012597  -0.034699  -0.077864
    29  O    0.029731   0.030970  -0.009308  -0.004269   0.020722  -0.128925
    30  H   -0.004873  -0.027669   0.010459  -0.006197   0.009963   0.012026
    31  H   -0.001249   0.001853  -0.000136   0.001914   0.012491   0.024358
    32  H    0.002544   0.001516   0.000481  -0.001772  -0.000648  -0.002847
    33  H    0.232940   0.040624  -0.076778   0.043483  -0.064319  -0.115128
    34  H   -0.004394  -0.001435   0.004564   0.000260   0.018716  -0.015206
    35  H    0.000099   0.000801  -0.003679  -0.005185   0.011369  -0.005102
    36  H    0.020290  -0.015276   0.010659   0.003550  -0.202475  -0.119105
    37  O    0.000354   0.000099   0.000185  -0.001433  -0.001174   0.005137
    38  H    0.000102  -0.000781   0.000803  -0.000632  -0.000117  -0.000367
    39  H   -0.000114   0.000132  -0.000235   0.000116   0.000324   0.000655
               7          8          9         10         11         12
     1  N    0.926152  -0.029955   0.011222   0.040204  -0.112049  -0.036298
     2  C   -0.828977  -0.133953   0.012324  -0.026744   0.117906  -0.022561
     3  C    0.606103   0.033411  -0.022282  -0.019698  -0.196840   0.076128
     4  C   -1.172572  -0.132055  -0.045782   0.016401  -0.385197  -0.251983
     5  C   -9.889853   0.193716   0.399599  -0.450485   2.135861   0.750931
     6  C   -1.596696  -0.841397  -0.007558  -0.173402   0.385044  -0.015533
     7  C   27.411503  -1.460162  -0.053766  -0.288426  -6.444727  -1.315185
     8  C   -1.460162   8.483338  -0.896791   0.686410  -0.864438  -0.196525
     9  C   -0.053766  -0.896791   6.200015   0.028994  -0.383846  -0.018281
    10  C   -0.288426   0.686410   0.028994   5.821862  -0.214561  -0.217651
    11  N   -6.444727  -0.864438  -0.383846  -0.214561  16.132468   1.240978
    12  C   -1.315185  -0.196525  -0.018281  -0.217651   1.240978   4.901116
    13  H   -0.031195   0.003679   0.000630  -0.001175   0.007257   0.003669
    14  H    0.054064  -0.000858   0.000140   0.000270  -0.002806  -0.008816
    15  H   -0.178189  -0.063527  -0.002397  -0.005341   0.026209   0.056458
    16  H    0.160330   0.050049  -0.012541   0.034084  -0.146933   0.055582
    17  H   -2.713442   0.754286  -0.052718   0.042994  -0.259473  -0.080862
    18  H    0.008856  -1.146294   0.169344  -0.215055   0.386127   0.086206
    19  H   -0.134673  -0.105863   0.335365   0.051201  -0.143158  -0.050648
    20  H   -0.114791   0.237984  -0.236667   0.181017  -0.125240  -0.020125
    21  H    0.308368   0.220189  -0.401843  -0.046293   0.085033   0.015057
    22  H    0.112684  -0.006878   0.014114  -0.350463  -0.295031  -0.011922
    23  H    0.610498   0.092270   0.120924  -0.153056  -1.206817  -0.179555
    24  H   -0.320284   0.053308  -0.002218   0.122197  -0.582212   0.272424
    25  H    0.220204  -0.072143   0.073086   0.027000  -0.284074   0.155112
    26  H   -0.033128   0.073580  -0.045352  -0.090556   0.126387   0.049991
    27  O    0.018203  -0.007172  -0.002345   0.000107  -0.000053   0.001270
    28  O    0.086547   0.036239  -0.009582   0.031319  -0.111476  -0.019623
    29  O   -0.013154   0.000017  -0.000118   0.002468  -0.019617   0.011554
    30  H   -0.004615   0.001403   0.000341   0.000126   0.001678   0.000276
    31  H   -0.054755   0.020342  -0.012117   0.029584  -0.017535   0.018541
    32  H   -0.008267  -0.004186  -0.000017  -0.001271   0.007658   0.003425
    33  H    0.039494  -0.017547  -0.001942  -0.000699  -0.007738  -0.006227
    34  H    0.009024   0.003987  -0.001225  -0.000114  -0.002997  -0.000462
    35  H    0.013281   0.008310   0.009156   0.007644  -0.024256  -0.014319
    36  H    0.712055  -0.006879   0.031750  -0.145848  -0.408869  -0.190894
    37  O    0.001262   0.000015  -0.000057   0.000323   0.001945  -0.000887
    38  H    0.000519   0.000127  -0.000040   0.000153   0.000238  -0.000479
    39  H   -0.000116  -0.000019   0.000034  -0.000111  -0.000188   0.000136
              13         14         15         16         17         18
     1  N   -0.117284  -0.055113  -0.067302  -0.001606   0.011087  -0.019736
     2  C   -0.532642   0.411243  -0.205316  -0.209439   0.045268  -0.001413
     3  C    0.099761  -1.174094   0.672946   0.117223  -0.027718   0.001007
     4  C    0.197750   0.641790  -2.508604  -0.182901   0.004532  -0.048228
     5  C   -0.005571  -0.109607   1.235326  -0.906861   1.050292   0.415518
     6  C    0.100105  -0.031561   0.209026  -1.113513  -0.306768   0.304486
     7  C   -0.031195   0.054064  -0.178189   0.160330  -2.713442   0.008856
     8  C    0.003679  -0.000858  -0.063527   0.050049   0.754286  -1.146294
     9  C    0.000630   0.000140  -0.002397  -0.012541  -0.052718   0.169344
    10  C   -0.001175   0.000270  -0.005341   0.034084   0.042994  -0.215055
    11  N    0.007257  -0.002806   0.026209  -0.146933  -0.259473   0.386127
    12  C    0.003669  -0.008816   0.056458   0.055582  -0.080862   0.086206
    13  H    2.113868  -0.121022  -0.006195   0.002524   0.001121   0.001128
    14  H   -0.121022   2.124850  -0.139023  -0.007596   0.001481  -0.002233
    15  H   -0.006195  -0.139023   3.057212  -0.000798  -0.171837   0.013760
    16  H    0.002524  -0.007596  -0.000798   4.663630  -0.057667   0.089018
    17  H    0.001121   0.001481  -0.171837  -0.057667   3.582405  -0.352772
    18  H    0.001128  -0.002233   0.013760   0.089018  -0.352772   2.675750
    19  H   -0.000962   0.001046  -0.007140  -0.191615   0.235814  -0.715324
    20  H    0.000097  -0.000083   0.002795  -0.009951   0.065076  -0.310513
    21  H   -0.000046   0.000030  -0.001056   0.034883  -0.059343   0.181965
    22  H    0.000035  -0.000287   0.001131   0.017394  -0.108734   0.067535
    23  H   -0.000087   0.000095  -0.003099  -0.030902   0.098860  -0.042498
    24  H    0.000465  -0.000067   0.008625   0.002874   0.079758   0.009285
    25  H    0.000474  -0.001040   0.003300   0.004377   0.013357   0.002703
    26  H   -0.003228  -0.000110  -0.007179   0.000929   0.008740  -0.001145
    27  O    0.011605  -0.000011   0.000032  -0.002651   0.000343   0.000161
    28  O   -0.000321   0.000226  -0.001132   0.046584  -0.002480   0.002071
    29  O    0.000718  -0.000310   0.000057   0.053284  -0.000687   0.000259
    30  H    0.003798  -0.000409   0.000345   0.007871  -0.000116  -0.000086
    31  H    0.000095  -0.000080   0.000799  -0.001156  -0.000752   0.002215
    32  H    0.000186  -0.000066   0.000468   0.003475  -0.000644   0.000353
    33  H   -0.099951   0.011577  -0.002307  -0.054161  -0.001997   0.000525
    34  H    0.003392  -0.000376  -0.000838  -0.002453   0.000673  -0.000315
    35  H   -0.001965   0.000565  -0.001228  -0.012703   0.001305  -0.001619
    36  H    0.000362   0.000796  -0.009009  -0.057899   0.020527  -0.030551
    37  O    0.000030   0.000008  -0.000049  -0.004112   0.000127  -0.000010
    38  H   -0.000024  -0.000003   0.000003  -0.000724   0.000028  -0.000005
    39  H    0.000004  -0.000001  -0.000009  -0.000355   0.000002  -0.000003
              19         20         21         22         23         24
     1  N    0.030753  -0.001844   0.001851  -0.001358   0.002311  -0.003578
     2  C    0.015440   0.002985  -0.002644  -0.002271  -0.000143   0.016581
     3  C   -0.027943  -0.003556   0.000901   0.003877  -0.001417  -0.024017
     4  C    0.053872  -0.000453   0.005889   0.022788   0.021563   0.030987
     5  C    0.011920   0.011923  -0.114500   0.163163  -0.190845   0.179868
     6  C   -0.232633   0.024600  -0.030131   0.018231  -0.016699   0.015525
     7  C   -0.134673  -0.114791   0.308368   0.112684   0.610498  -0.320284
     8  C   -0.105863   0.237984   0.220189  -0.006878   0.092270   0.053308
     9  C    0.335365  -0.236667  -0.401843   0.014114   0.120924  -0.002218
    10  C    0.051201   0.181017  -0.046293  -0.350463  -0.153056   0.122197
    11  N   -0.143158  -0.125240   0.085033  -0.295031  -1.206817  -0.582212
    12  C   -0.050648  -0.020125   0.015057  -0.011922  -0.179555   0.272424
    13  H   -0.000962   0.000097  -0.000046   0.000035  -0.000087   0.000465
    14  H    0.001046  -0.000083   0.000030  -0.000287   0.000095  -0.000067
    15  H   -0.007140   0.002795  -0.001056   0.001131  -0.003099   0.008625
    16  H   -0.191615  -0.009951   0.034883   0.017394  -0.030902   0.002874
    17  H    0.235814   0.065076  -0.059343  -0.108734   0.098860   0.079758
    18  H   -0.715324  -0.310513   0.181965   0.067535  -0.042498   0.009285
    19  H    2.379491   0.206765  -0.445154  -0.065491   0.064609   0.003393
    20  H    0.206765   2.100414  -0.613647  -0.257351   0.129613   0.004945
    21  H   -0.445154  -0.613647   2.256651   0.196778  -0.318673  -0.005432
    22  H   -0.065491  -0.257351   0.196778   2.528441  -0.587072   0.042974
    23  H    0.064609   0.129613  -0.318673  -0.587072   2.988451   0.030873
    24  H    0.003393   0.004945  -0.005432   0.042974   0.030873   2.021935
    25  H   -0.007283  -0.003751   0.012247   0.015523   0.001836  -0.343728
    26  H    0.007275  -0.000177  -0.006285   0.007574   0.006061  -0.393552
    27  O   -0.001151  -0.000138  -0.000398   0.000004   0.000084   0.000186
    28  O   -0.015252  -0.004709   0.011828  -0.000401   0.049003  -0.008074
    29  O   -0.001976  -0.000173   0.001156   0.000176   0.000422   0.000612
    30  H    0.000998   0.000032  -0.000060  -0.000006  -0.000031  -0.000038
    31  H    0.006882   0.000942  -0.001117   0.001241  -0.000484   0.006161
    32  H   -0.001918  -0.000094   0.000531   0.000213  -0.001543   0.000246
    33  H   -0.004756  -0.000112   0.000062   0.000158   0.000655   0.000521
    34  H    0.001782   0.000017  -0.000261  -0.000080   0.000381  -0.000017
    35  H    0.004925   0.000120  -0.001620  -0.001409   0.005127  -0.001174
    36  H    0.031635   0.002213   0.010248   0.025954   0.094763  -0.041439
    37  O    0.000165   0.000008  -0.000088  -0.000031   0.000179  -0.000119
    38  H    0.000037   0.000000  -0.000007  -0.000019   0.000033  -0.000064
    39  H    0.000012   0.000006  -0.000017  -0.000003   0.000021   0.000056
              25         26         27         28         29         30
     1  N   -0.000539   0.001277  -0.029916   0.001854   0.029731  -0.004873
     2  C   -0.004336  -0.041159   0.052087  -0.014014   0.030970  -0.027669
     3  C    0.013246   0.061876  -0.023448   0.009201  -0.009308   0.010459
     4  C   -0.019464  -0.024722   0.033447  -0.012597  -0.004269  -0.006197
     5  C   -0.039489   0.054696  -0.112882  -0.034699   0.020722   0.009963
     6  C   -0.045610   0.066664  -0.138390  -0.077864  -0.128925   0.012026
     7  C    0.220204  -0.033128   0.018203   0.086547  -0.013154  -0.004615
     8  C   -0.072143   0.073580  -0.007172   0.036239   0.000017   0.001403
     9  C    0.073086  -0.045352  -0.002345  -0.009582  -0.000118   0.000341
    10  C    0.027000  -0.090556   0.000107   0.031319   0.002468   0.000126
    11  N   -0.284074   0.126387  -0.000053  -0.111476  -0.019617   0.001678
    12  C    0.155112   0.049991   0.001270  -0.019623   0.011554   0.000276
    13  H    0.000474  -0.003228   0.011605  -0.000321   0.000718   0.003798
    14  H   -0.001040  -0.000110  -0.000011   0.000226  -0.000310  -0.000409
    15  H    0.003300  -0.007179   0.000032  -0.001132   0.000057   0.000345
    16  H    0.004377   0.000929  -0.002651   0.046584   0.053284   0.007871
    17  H    0.013357   0.008740   0.000343  -0.002480  -0.000687  -0.000116
    18  H    0.002703  -0.001145   0.000161   0.002071   0.000259  -0.000086
    19  H   -0.007283   0.007275  -0.001151  -0.015252  -0.001976   0.000998
    20  H   -0.003751  -0.000177  -0.000138  -0.004709  -0.000173   0.000032
    21  H    0.012247  -0.006285  -0.000398   0.011828   0.001156  -0.000060
    22  H    0.015523   0.007574   0.000004  -0.000401   0.000176  -0.000006
    23  H    0.001836   0.006061   0.000084   0.049003   0.000422  -0.000031
    24  H   -0.343728  -0.393552   0.000186  -0.008074   0.000612  -0.000038
    25  H    2.084479  -0.645397  -0.000248   0.007634   0.001911   0.000065
    26  H   -0.645397   1.965915   0.001461   0.013405   0.003007  -0.000140
    27  O   -0.000248   0.001461   7.995893   0.000758  -0.088262   0.376236
    28  O    0.007634   0.013405   0.000758   8.122798  -0.065484  -0.000718
    29  O    0.001911   0.003007  -0.088262  -0.065484   8.312799  -0.004035
    30  H    0.000065  -0.000140   0.376236  -0.000718  -0.004035   0.496993
    31  H   -0.000043  -0.001700   0.002143   0.385150   0.011381  -0.000227
    32  H    0.000290  -0.001206   0.011131  -0.014273   0.356948  -0.000322
    33  H   -0.001629   0.001313   0.113976   0.000108  -0.040691  -0.036862
    34  H    0.000560  -0.000320   0.182496   0.000880   0.029784  -0.047800
    35  H    0.000261   0.001648  -0.031026   0.037571   0.207148   0.001878
    36  H    0.044533   0.007422  -0.006446   0.058643  -0.032148   0.000455
    37  O   -0.000022  -0.001977  -0.000672   0.001073  -0.071434   0.000407
    38  H   -0.000210   0.000136  -0.000058  -0.000176   0.002820   0.000143
    39  H   -0.000043   0.000458  -0.000122   0.000265   0.000591  -0.000107
              31         32         33         34         35         36
     1  N   -0.001249   0.002544   0.232940  -0.004394   0.000099   0.020290
     2  C    0.001853   0.001516   0.040624  -0.001435   0.000801  -0.015276
     3  C   -0.000136   0.000481  -0.076778   0.004564  -0.003679   0.010659
     4  C    0.001914  -0.001772   0.043483   0.000260  -0.005185   0.003550
     5  C    0.012491  -0.000648  -0.064319   0.018716   0.011369  -0.202475
     6  C    0.024358  -0.002847  -0.115128  -0.015206  -0.005102  -0.119105
     7  C   -0.054755  -0.008267   0.039494   0.009024   0.013281   0.712055
     8  C    0.020342  -0.004186  -0.017547   0.003987   0.008310  -0.006879
     9  C   -0.012117  -0.000017  -0.001942  -0.001225   0.009156   0.031750
    10  C    0.029584  -0.001271  -0.000699  -0.000114   0.007644  -0.145848
    11  N   -0.017535   0.007658  -0.007738  -0.002997  -0.024256  -0.408869
    12  C    0.018541   0.003425  -0.006227  -0.000462  -0.014319  -0.190894
    13  H    0.000095   0.000186  -0.099951   0.003392  -0.001965   0.000362
    14  H   -0.000080  -0.000066   0.011577  -0.000376   0.000565   0.000796
    15  H    0.000799   0.000468  -0.002307  -0.000838  -0.001228  -0.009009
    16  H   -0.001156   0.003475  -0.054161  -0.002453  -0.012703  -0.057899
    17  H   -0.000752  -0.000644  -0.001997   0.000673   0.001305   0.020527
    18  H    0.002215   0.000353   0.000525  -0.000315  -0.001619  -0.030551
    19  H    0.006882  -0.001918  -0.004756   0.001782   0.004925   0.031635
    20  H    0.000942  -0.000094  -0.000112   0.000017   0.000120   0.002213
    21  H   -0.001117   0.000531   0.000062  -0.000261  -0.001620   0.010248
    22  H    0.001241   0.000213   0.000158  -0.000080  -0.001409   0.025954
    23  H   -0.000484  -0.001543   0.000655   0.000381   0.005127   0.094763
    24  H    0.006161   0.000246   0.000521  -0.000017  -0.001174  -0.041439
    25  H   -0.000043   0.000290  -0.001629   0.000560   0.000261   0.044533
    26  H   -0.001700  -0.001206   0.001313  -0.000320   0.001648   0.007422
    27  O    0.002143   0.011131   0.113976   0.182496  -0.031026  -0.006446
    28  O    0.385150  -0.014273   0.000108   0.000880   0.037571   0.058643
    29  O    0.011381   0.356948  -0.040691   0.029784   0.207148  -0.032148
    30  H   -0.000227  -0.000322  -0.036862  -0.047800   0.001878   0.000455
    31  H    0.627488  -0.001128  -0.000394   0.000512  -0.011073  -0.195780
    32  H   -0.001128   0.531839  -0.001111  -0.011802  -0.116017  -0.000925
    33  H   -0.000394  -0.001111   0.538203  -0.030999   0.001640   0.002886
    34  H    0.000512  -0.011802  -0.030999   0.383600  -0.005294   0.003651
    35  H   -0.011073  -0.116017   0.001640  -0.005294   0.544244   0.001520
    36  H   -0.195780  -0.000925   0.002886   0.003651   0.001520   0.736578
    37  O    0.001238  -0.019904  -0.000884   0.003387   0.006417  -0.003477
    38  H   -0.000404  -0.003324   0.000102  -0.001067   0.002672   0.001559
    39  H    0.000160  -0.007883   0.000188   0.000338   0.001277  -0.001070
              37         38         39
     1  N    0.000354   0.000102  -0.000114
     2  C    0.000099  -0.000781   0.000132
     3  C    0.000185   0.000803  -0.000235
     4  C   -0.001433  -0.000632   0.000116
     5  C   -0.001174  -0.000117   0.000324
     6  C    0.005137  -0.000367   0.000655
     7  C    0.001262   0.000519  -0.000116
     8  C    0.000015   0.000127  -0.000019
     9  C   -0.000057  -0.000040   0.000034
    10  C    0.000323   0.000153  -0.000111
    11  N    0.001945   0.000238  -0.000188
    12  C   -0.000887  -0.000479   0.000136
    13  H    0.000030  -0.000024   0.000004
    14  H    0.000008  -0.000003  -0.000001
[...]
 6,-0.00000109,0.00000390,0.00001436,0.00008176,0.00003767,-0.00125147,
 -0.00018376,0.00048409,-0.00007684,-0.00027393,0.00002545,-0.00002515,
 -0.00003394,0.00001478,0.00000094,0.00006794,0.00004067,-0.00003679,-0
 .00007696,-0.00001358,0.00005683,-0.00007424,-0.00010726,-0.00011202,-
 0.00002468,-0.00003830,0.00010172,-0.00006548,0.00006785,-0.00005545,-
 0.00006895,-0.00018788,0.00005316,-0.00003202,0.00006856,0.00004480,-0
 .00004296,-0.00010157,-0.00179090,-0.00446061,0.00091324,-0.00791117,-
 0.01544633,-0.00681689,0.08590794,-0.06892256,0.03247778,-0.00005729,-
 0.00031079,0.00026189,0.00490602,-0.00083118,0.00020665,-0.01449574,0.
 00795408,-0.00857755,0.00010706,-0.00149141,0.00021370,0.01620042,0.00
 616338,-0.00079054,-0.08021047,0.07566575,0.00015616,-0.00013354,-0.00
 018105,0.00002765,-0.00006044,0.00002523,-0.00002025,-0.00000348,0.000
 00226,-0.00008098,-0.00002208,-0.00002039,0.00002071,-0.00015394,-0.00
 007300,-0.00015366,0.00043322,-0.00000608,-0.00008955,-0.00010837,-0.0
 0002744,0.00006184,-0.00001147,0.00005673,0.00003484,0.00001039,0.0000
 1083,-0.00000930,0.00002799,-0.00000036,-0.00020926,-0.00036943,-0.000
 17139,-0.00012814,0.00005718,0.00020556,0.00000153,-0.00001309,0.00000
 638,-0.00000174,-0.00000376,0.00000204,-0.00000391,-0.00001821,-0.0000
 0098,0.00034319,0.00030916,0.00046437,-0.00000666,-0.00001666,-0.00000
 734,-0.00000762,0.00000568,-0.00002224,-0.00001248,0.00002767,-0.00002
 100,0.00001005,0.00000886,-0.00001244,-0.00000462,-0.00001638,0.000010
 25,0.00001501,0.00000549,-0.00000748,-0.00000169,0.00002726,-0.0000091
 1,0.00009092,0.00001449,-0.00007682,-0.00009285,0.00008053,-0.00004662
 ,-0.00001927,-0.00015940,-0.00007871,0.00083104,0.00143923,0.00006881,
 -0.00086626,-0.00527372,-0.00871691,-0.05256526,0.03982977,-0.04380752
 ,-0.00033592,0.00001045,0.00021742,0.00278519,0.00050114,-0.00000629,0
 .02551088,-0.01209064,0.00752668,-0.00011607,0.00032293,0.00024411,-0.
 00307752,-0.00440017,-0.00173754,0.02812638,-0.02404032,0.04859521,-0.
 00158130,-0.00082170,-0.00065388,-0.00030734,0.00025967,-0.00010696,0.
 00002056,-0.00029635,-0.00007458,-0.00065479,0.00056749,-0.00012050,0.
 00128820,-0.00133016,-0.00067673,0.00083612,0.00150338,0.00165663,0.00
 161365,-0.00684280,0.00586257,-0.00014578,-0.00001995,0.00066855,-0.00
 027790,-0.00006516,0.00109573,-0.01042739,0.00373121,-0.00002080,0.004
 50279,0.01441869,0.00673257,0.00437920,0.00138486,-0.00613030,-0.00000
 665,-0.00004349,-0.00004268,-0.00009905,0.00003074,0.00002906,0.000001
 63,-0.00032548,-0.00014114,0.00008499,0.00215153,-0.00111722,0.0018671
 4,0.00316058,-0.00027523,0.00016693,0.00006237,-0.00034579,-0.00008444
 ,0.00011794,-0.00036461,0.00023350,0.00016549,-0.00039944,0.00000745,-
 0.00009446,-0.00020514,0.00200904,-0.00022943,0.00050802,0.00030066,-0
 .00065508,-0.00021690,0.00082711,0.00040180,0.00330622,0.00020640,-0.0
 0057346,0.00080809,-0.00027636,0.00070776,0.00104820,-0.00056394,-0.00
 283165,0.00000019,-0.23738063,-0.11222844,-0.12499286,0.00336218,-0.00
 220362,0.00031999,-0.00013001,0.00012616,-0.00008220,0.01554902,0.0112
 2635,0.01049224,-0.00111423,-0.00046524,0.00082146,0.00182665,0.001453
 39,0.00089132,-0.00087422,0.00391032,-0.00104209,-0.00595138,0.0009014
 9,-0.00079133,0.22038276,-0.00105236,-0.00032499,-0.00054345,0.0001264
 8,0.00072897,0.00047284,-0.00064341,0.00010771,-0.00015575,-0.00005184
 ,-0.00044612,-0.00025541,0.00056550,-0.00021563,-0.00031230,-0.0003994
 1,-0.00138162,-0.00044970,-0.00368556,-0.00637780,0.00080158,-0.000256
 66,0.00026875,0.00036339,0.00001848,0.00031020,0.00048684,0.00032899,0
 .00558370,0.00359666,0.01229080,-0.00451943,0.00540361,0.00184521,0.00
 105464,-0.00482249,0.00000597,0.00004949,0.00004482,-0.00006127,0.0000
 3265,-0.00000860,0.00002504,-0.00009312,-0.00000876,0.00196157,-0.0012
 9147,0.00181938,0.00103869,0.00103750,0.00038095,0.00028879,-0.0000750
 4,-0.00018453,-0.00000910,0.00001459,0.00005742,0.00000567,-0.00016446
 ,-0.00025008,0.00007281,-0.00015618,-0.00057853,0.00251372,-0.00124143
 ,-0.00011929,0.00128074,-0.00147696,0.00031216,0.00067588,0.00025875,0
 .00198529,0.00017478,-0.00037970,0.00109495,-0.00024844,0.00007074,0.0
 0024916,-0.00101816,-0.00347863,-0.00001448,-0.06894294,-0.10300014,-0
 .06672451,0.00822345,-0.00437141,-0.00046716,-0.00004850,0.00006850,-0
 .00003716,-0.02715894,-0.01469625,-0.01574111,-0.00063133,-0.00082015,
 0.00114045,0.00252396,0.00159889,0.00113897,-0.00047430,0.00490679,-0.
 00118570,-0.01227177,0.00496237,0.00227546,0.08254166,0.12317652,-0.00
 075072,-0.00098842,-0.00079669,-0.00006599,0.00013338,0.00004996,-0.00
 005888,-0.00019535,-0.00006051,-0.00039680,0.00023119,-0.00013159,0.00
 053321,-0.00081191,-0.00055637,0.00078768,0.00121362,0.00140771,0.0035
 0296,-0.00353530,0.00516974,0.00032336,0.00043724,0.00081718,0.0004636
 2,0.00041322,0.00089163,-0.00184362,0.00354998,0.00287218,0.01091633,0
 .00913168,-0.01059235,-0.00389773,-0.00224863,-0.00684657,-0.00000957,
 -0.00005444,-0.00002322,-0.00005639,0.00000891,0.00000916,-0.00001465,
 -0.00022436,-0.00007548,-0.00096752,0.00223810,-0.00027222,0.00119512,
 0.00235188,-0.00046573,-0.00013140,-0.00006186,-0.00045121,-0.00014643
 ,0.00048121,-0.00069995,-0.00017666,-0.00018137,-0.00046410,0.00035469
 ,-0.00055781,-0.00083450,0.00177663,-0.00071665,-0.00004606,0.00022278
 ,-0.00050070,0.00024394,0.00095935,0.00037667,0.00020752,-0.00034412,0
 .00017697,-0.00016567,-0.00015160,-0.00014234,0.00027015,-0.00032476,-
 0.00215084,0.00001989,-0.10559224,-0.08152424,-0.08646875,0.00570636,-
 0.00375235,0.00032229,-0.00011345,0.00007060,-0.00005066,-0.00779741,-
 0.00265285,-0.00501728,-0.00074765,-0.00039139,0.00105130,0.00115536,0
 .00088650,0.00065418,-0.00030552,0.00308483,-0.00069073,-0.00826493,0.
 00498424,-0.00043276,0.10392221,0.07073008,0.10158733,-0.00022575,-0.0
 0016063,-0.00006410,-0.00011697,0.00010061,-0.00001644,0.00006780,-0.0
 0004287,-0.00000322,-0.00002499,0.00007951,0.00001958,-0.00005220,-0.0
 0012587,-0.00006841,0.00011424,0.00009861,0.00012947,0.00005048,0.0001
 4099,-0.00005465,0.00001998,0.00000403,0.00001250,0.00001168,0.0000089
 2,0.00000946,0.00015437,-0.00005366,-0.00001481,-0.00038751,-0.0002161
 5,-0.00012592,0.00003946,0.00002658,0.00005637,0.00000636,-0.00001174,
 0.00000308,-0.00000993,-0.00000453,-0.00000661,-0.00000470,0.00000398,
 -0.00000392,0.00008813,0.00007444,-0.00006500,-0.00004053,-0.00004430,
 -0.00001346,-0.00002284,-0.00001340,-0.00000239,0.00000878,0.00001999,
 -0.00002016,-0.00002789,-0.00001250,-0.00000083,0.00002378,-0.00001023
 ,-0.00002486,-0.00004770,-0.00001402,-0.00001845,0.00002813,-0.0000198
 5,0.00001113,-0.00007044,-0.00003150,-0.00000319,0.00006546,-0.0000367
 1,0.00003326,0.00001912,0.00006667,0.00001915,0.00073786,-0.00286354,0
 .00046142,-0.00144628,-0.00018031,-0.00000670,-0.00729000,-0.00917997,
 0.01248994,-0.00029521,-0.00003938,-0.00012248,0.00005729,-0.00006461,
 -0.00015138,-0.00083899,0.00002457,-0.00292029,0.00044282,0.00036342,0
 .00021626,-0.00195794,0.00520532,-0.00070027,0.00196416,-0.00084731,0.
 00046967,0.00058102,0.00053547,0.00031689,0.34135845,-0.00055515,-0.00
 027292,-0.00016018,-0.00003854,0.00019492,0.00007492,-0.00005001,-0.00
 001325,-0.00003011,-0.00000520,0.00002973,-0.00000457,0.00001471,-0.00
 009596,-0.00004676,0.00014430,-0.00007556,0.00003391,0.00008458,-0.000
 07449,0.00002866,0.00002265,0.00003652,-0.00001788,-0.00001367,-0.0000
 0602,0.00001910,0.00009327,-0.00010485,-0.00002735,-0.00020250,0.00005
 165,-0.00007239,0.00004782,-0.00009102,0.00006904,0.00002141,0.0000294
 6,-0.00000633,-0.00000993,0.00000060,-0.00000963,-0.00001066,-0.000007
 21,-0.00000767,0.00010755,-0.00001097,-0.00002305,-0.00002896,0.000005
 21,-0.00001052,-0.00000895,0.00000031,-0.00000755,-0.00000128,0.000003
 18,-0.00002899,-0.00001964,0.00000452,-0.00000074,0.00001409,0.0000026
 6,-0.00000027,-0.00003158,0.00000273,-0.00000869,0.00000929,0.00002815
 ,0.00000596,-0.00003559,0.00000452,-0.00000883,-0.00000006,0.00001703,
 0.00000326,0.00000003,0.00003015,0.00002497,-0.00054452,-0.00145556,0.
 00025424,-0.00101549,0.00058693,-0.00024360,-0.00773814,0.00103599,0.0
 0808955,-0.00008092,0.00002894,-0.00019436,-0.00027745,-0.00023429,0.0
 0009124,0.00092202,-0.01136184,-0.00418250,0.00110870,0.00072421,0.000
 40240,0.00011500,0.00213301,-0.00092728,0.00223683,-0.00171387,0.00120
 979,0.00011712,0.00015216,0.00011167,0.16929590,0.46890530,0.00065930,
 0.00037088,0.00035259,0.00012748,-0.00017233,-0.00004613,-0.00000778,0
 .00006638,0.00005554,0.00004930,-0.00006294,0.00000264,0.00005138,0.00
 015050,0.00009801,-0.00016035,-0.00008108,-0.00014085,-0.00006113,0.00
 003234,0.00001160,-0.00004088,-0.00002967,-0.00000979,-0.00002118,-0.0
 0001462,-0.00003035,-0.00010323,0.00002448,0.00002767,0.00032461,0.000
 16788,0.00030042,0.00008330,0.00001914,-0.00026358,-0.00002220,0.00001
 329,-0.00002994,0.00002491,0.00001909,-0.00000121,0.00001843,0.0000139
 8,-0.00000120,-0.00016287,-0.00006342,0.00001697,0.00004802,0.00002538
 ,0.00001366,0.00001237,0.00000540,0.00001709,0.00000456,-0.00002224,0.
 00003651,0.00002000,0.00000571,0.00001470,-0.00001655,0.00001741,0.000
 03336,0.00004894,0.00001385,0.00001781,-0.00002519,-0.00001117,-0.0000
 3021,0.00000909,0.00001001,0.00006560,0.00004649,-0.00006820,-0.000022
 74,0.00000538,0.00008029,-0.00003340,0.00014993,0.00390312,-0.00023692
 ,0.00209038,-0.00008873,0.00073886,0.01312189,0.01102294,-0.00795278,0
 .00004336,-0.00009063,0.00018889,0.00000221,0.00007666,-0.00006463,-0.
 00560106,-0.00531995,-0.00649168,-0.00154090,-0.00105034,-0.00084227,0
 .00177114,-0.00610633,0.00068021,-0.00330724,0.00207882,-0.00184867,-0
 .00052939,-0.00060713,-0.00059464,-0.14641601,0.28072472,0.41029677,-0
 .00005873,-0.00002228,-0.00007834,0.00001775,-0.00001724,0.00000993,-0
 .00002252,-0.00000568,-0.00001430,-0.00000825,-0.00001593,-0.00001305,
 0.00000413,0.00001120,-0.00000164,-0.00001814,0.00001091,0.00000084,-0
 .00001113,-0.00005958,0.00001135,0.00000302,0.00000481,0.00000070,0.00
 000377,0.00000034,0.00000360,-0.00003393,0.00002885,-0.00000531,0.0000
 5966,0.00000984,-0.00005925,-0.00006230,0.00000776,0.00007370,0.000004
 07,-0.00000323,0.00000835,-0.00000182,-0.00000434,0.00000389,-0.000003
 30,-0.00000701,0.00000347,0.00001098,0.00000093,0.00002587,0.00000244,
 0.00000618,0.00000293,0.00000535,0.00000360,-0.00000524,-0.00000442,-0
 .00000038,-0.00000181,0.00000628,0.00000198,-0.00000578,-0.00000342,-0
 .00000214,-0.00000315,0.00000402,0.00000039,0.00000323,-0.00000175,0.0
 0000698,0.00000525,0.00003508,0.00000560,-0.00002543,-0.00004363,0.000
 04159,-0.00000335,-0.00001217,-0.00007182,0.00000363,-0.00015274,-0.00
 030159,-0.00007346,-0.00011830,-0.00000842,-0.00019410,-0.00061564,-0.
 00157369,0.00072375,0.00006828,-0.00000704,-0.00000951,0.00001200,0.00
 001335,0.00003507,0.00039465,0.00324880,-0.00107288,0.00021882,0.00010
 809,0.00015777,-0.00015399,0.00036710,0.00020823,0.00035740,0.00005753
 ,0.00018403,-0.00003087,0.00001720,0.00009601,-0.12677301,0.09491936,0
 .20219672,0.11767718,0.00009597,0.00002788,-0.00003650,-0.00005512,-0.
 00004456,-0.00003597,0.00005120,-0.00002707,-0.00000246,-0.00001970,0.
 00001978,0.00000569,-0.00003272,-0.00001205,-0.00001063,-0.00001990,0.
 00008798,0.00004877,-0.00002837,0.00006308,-0.00002958,0.00000043,-0.0
 0001619,0.00001619,0.00001112,0.00000720,-0.00000453,-0.00000104,0.000
 02764,0.00000464,-0.00002643,-0.00010549,-0.00003976,-0.00003584,0.000
 05229,0.00002148,-0.00000605,-0.00003092,0.00001815,-0.00000526,-0.000
 00723,0.00000442,0.00000162,0.00000028,0.00000351,0.00000655,0.0000343
 1,-0.00000569,-0.00000141,-0.00001617,0.00000087,-0.00000183,-0.000001
 92,0.00000031,0.00000143,0.00000610,0.00000472,0.00000151,-0.00000619,
 -0.00000239,0.00000113,-0.00000764,-0.00000820,-0.00000103,-0.00000344
 ,-0.00000092,0.00000438,-0.00001441,0.00000287,0.00000187,-0.00000960,
 -0.00000791,0.00000958,-0.00001009,0.00000329,0.00000295,-0.00000959,-
 0.00000168,0.00035444,-0.00080264,-0.00005478,-0.00031750,-0.00015030,
 -0.00004272,-0.00254446,-0.00337873,0.00246868,-0.00001200,0.00001247,
 0.00002938,0.00004131,0.00002924,-0.00003249,0.00370631,0.00544328,-0.
 00251911,-0.00010530,-0.00002591,0.00008417,-0.00067031,0.00157313,0.0
 0008434,0.00027763,-0.00016198,0.00015460,0.00012412,0.00016034,0.0000
 9835,0.06075466,-0.13134898,-0.17127214,-0.08042420,0.14337165,-0.0002
 1678,-0.00011511,-0.00009746,-0.00001854,0.00005998,0.00002312,-0.0000
 0887,-0.00001071,-0.00002051,-0.00001015,0.00001239,-0.00000135,-0.000
 01580,-0.00002632,-0.00002409,0.00005801,-0.00002051,0.00001959,0.0000
 1813,-0.00002384,0.00000364,0.00000938,0.00000988,-0.00000012,0.000005
 69,0.00000179,0.00000753,0.00001760,0.00000737,-0.00000716,-0.00005753
 ,-0.00002776,-0.00007950,-0.00002601,0.00000082,0.00006936,0.00000946,
 0.00000217,0.00001140,-0.00000801,-0.00000754,0.00000312,-0.00000738,-
 0.00000328,0.00000222,0.00002461,0.00000341,0.00000129,-0.00001251,-0.
 00000295,-0.00000316,-0.00000127,-0.00000132,-0.00000421,-0.00000241,0
 .00000390,-0.00000888,-0.00000336,-0.00000005,-0.00000393,0.00000231,-
 0.00000319,-0.00000843,-0.00001152,-0.00000496,-0.00000385,0.00000490,
 0.00000318,0.00000761,-0.00000561,-0.00000456,-0.00001461,-0.00001251,
 0.00002322,0.00001189,0.00000079,-0.00002682,0.00001940,-0.00042306,-0
 .00031007,-0.00000069,-0.00029986,-0.00006577,-0.00009215,-0.00011673,
 0.00058820,0.00004687,0.00003955,0.00004448,-0.00004444,0.00003385,0.0
 0000673,0.00000379,0.00057112,-0.00183252,-0.00140812,0.00047996,0.000
 31536,0.00022084,0.00036840,0.00017587,-0.00031324,0.00045576,0.000086
 73,-0.00002227,0.00013576,0.00010502,0.00011296,0.16825707,-0.19951238
 ,-0.33514629,-0.17859207,0.20101384,0.34447941,-0.00001910,0.00000883,
 -0.00001712,0.00001268,-0.00000151,0.00001528,-0.00001751,0.00000462,-
 0.00000855,0.00000057,-0.00001203,-0.00000531,0.00001734,0.00000923,0.
 00000748,-0.00000969,-0.00001621,-0.00001762,-0.00000288,-0.00005021,0
 .00001983,0.00000142,0.00000310,-0.00000346,-0.00000743,-0.00000306,0.
 00000010,-0.00002785,-0.00001310,-0.00000045,0.00007354,0.00007030,0.0
 0001816,-0.00000719,-0.00002771,-0.00000243,0.00000003,0.00000105,0.00
 000188,-0.00000055,-0.00000027,0.00000169,-0.00000035,-0.00000375,0.00
 000057,0.00000678,-0.00002177,0.00001105,0.00000701,0.00001253,0.00000
 204,0.00000483,0.00000515,-0.00000113,-0.00000353,-0.00000433,0.000000
 13,0.00000515,0.00000407,0.00000009,-0.00000391,0.00000268,0.00000731,
 0.00000781,0.00000649,0.00000394,-0.00000569,0.00001164,-0.00000214,0.
 00001242,0.00000959,0.00000032,-0.00001419,0.00001094,-0.00000865,-0.0
 0000166,-0.00000677,0.00000223,-0.00010631,0.00012226,-0.00009919,0.00
 014774,0.00025723,-0.00002856,-0.00021849,0.00015464,0.00101865,0.0000
 5611,0.00000906,0.00000983,-0.00013767,-0.00007791,0.00007569,-0.00072
 353,-0.00072500,-0.00246820,0.00004656,0.00002134,0.00002213,0.0000582
 8,-0.00026142,0.00022378,0.00013478,-0.00030116,-0.00007476,-0.0001407
 2,-0.00010685,-0.00007451,-0.20620647,-0.25860641,-0.06289324,0.009245
 18,0.01886028,0.00935764,0.19781652,0.00017564,0.00008455,0.00005505,0
 .00000781,-0.00005279,-0.00002035,0.00001972,0.00000296,0.00000861,0.0
 0000012,-0.00000677,0.00000173,-0.00000603,0.00002617,0.00001045,-0.00
 003567,0.00003433,-0.00000476,-0.00002513,0.00001794,-0.00000916,-0.00
 000690,-0.00001008,0.00000545,0.00000658,0.00000324,-0.00000455,-0.000
 03301,0.00004346,0.00000872,0.00006676,-0.00002360,0.00001094,-0.00001
 871,0.00002242,-0.00000776,-0.00000777,-0.00000983,0.00000214,0.000001
 98,-0.00000100,0.00000336,0.00000269,0.00000167,0.00000280,-0.00002764
 ,-0.00000037,0.00000625,0.00000831,-0.00000157,0.00000376,0.00000315,-
 0.00000056,0.00000140,0.00000106,-0.00000101,0.00000786,0.00000729,-0.
 00000098,-0.00000078,-0.00000542,-0.00000106,-0.00000200,0.00000995,-0
 .00000162,0.00000276,-0.00000340,-0.00000929,0.00000062,0.00001303,0.0
 0000192,-0.00000190,-0.00001060,0.00000267,-0.00000062,0.00000236,-0.0
 0001862,-0.00000416,0.00025614,0.00039011,-0.00002403,0.00025011,-0.00
 014600,-0.00001028,0.00083214,0.00043128,-0.00047292,-0.00004684,-0.00
 003132,0.00006011,0.00006874,0.00008802,-0.00000706,-0.00198550,-0.001
 79702,0.00049415,-0.00035433,-0.00022739,-0.00014334,-0.00006116,-0.00
 041773,0.00011699,-0.00054390,0.00030273,0.00014379,-0.00003762,-0.000
 03272,-0.00001950,-0.22283056,-0.32714109,-0.11378136,-0.01634781,-0.0
 1472560,-0.00046468,0.24065443,0.34320455,-0.00003234,-0.00001504,-0.0
 0003682,-0.00000208,-0.00000007,0.00000743,-0.00000275,-0.00000095,-0.
 00000524,-0.00000146,-0.00000059,-0.00000207,-0.00000354,0.00000325,-0
 .00000506,0.00000316,-0.00000339,-0.00000002,-0.00000225,-0.00001749,0
 .00000467,0.00000660,0.00000211,0.00000247,0.00000499,0.00000574,0.000
 00612,-0.00000777,0.00000876,0.00000355,0.00000253,-0.00000195,-0.0000
 3655,-0.00001761,-0.00000985,0.00003511,0.00000083,-0.00000188,0.00000
 559,-0.00000191,-0.00000259,0.00000256,-0.00000196,-0.00000167,0.00000
 256,-0.00000365,-0.00000319,0.00001229,-0.00000103,0.00000040,-0.00000
 183,0.00000137,0.00000030,-0.00000192,-0.00000399,0.00000310,-0.000000
 79,0.00000159,0.00000013,-0.00000218,-0.00000226,-0.00000390,-0.000003
 62,-0.00000133,-0.00000227,-0.00000282,0.00000206,0.00000301,0.0000048
 8,0.00000399,0.00000163,-0.00000872,-0.00001177,0.00001367,0.00000234,
 -0.00000011,-0.00001662,0.00000056,-0.00017666,0.00010501,-0.00012803,
 0.00002769,-0.00007712,-0.00012920,0.00190259,0.00069329,-0.00376868,0
 .00008313,0.00006818,0.00002797,0.00007731,0.00003435,0.00006261,-0.00
 164684,0.00087184,0.00690252,0.00009312,0.00006394,0.00006367,0.000163
 01,-0.00034480,0.00014581,-0.00010785,0.00015788,-0.00010146,0.0000309
 8,0.00000709,0.00004992,-0.03168168,-0.08561182,-0.05918164,-0.0235996
 6,-0.02996078,-0.00773953,0.05490553,0.11403228,0.06381356\\-0.0000005
 1,-0.00000037,-0.00000104,-0.00000062,0.00000043,-0.00000072,-0.000000
 40,0.00000024,-0.00000059,-0.00000172,-0.00000013,-0.00000058,-0.00000
 012,0.00000057,0.,0.00000202,-0.00000088,0.00000002,0.00000002,0.00000
 012,0.00000046,0.00000008,-0.00000018,0.00000050,0.00000032,0.00000016
 ,0.00000076,0.00000023,0.00000024,0.00000051,-0.00000027,0.00000033,0.
 00000052,-0.00000028,0.00000049,0.00000037,-0.00000045,-0.00000014,-0.
 00000113,-0.00000063,0.00000021,-0.00000085,-0.00000048,0.00000052,-0.
 00000018,0.00000016,-0.00000005,-0.00000018,-0.00000027,0.00000047,0.0
 0000038,0.00000019,0.00000003,0.00000033,0.00000052,-0.00000027,0.0000
 0013,0.00000027,0.00000009,0.00000101,0.00000052,-0.00000009,0.0000008
 3,0.00000003,0.00000049,0.00000100,0.00000022,0.00000029,0.00000094,-0
 .00000045,0.00000068,0.00000045,-0.00000030,0.00000052,0.00000055,-0.0
 0000041,0.00000049,0.00000017,0.00000019,-0.00000050,-0.00000077,0.000
 00034,-0.00000017,0.00000028,0.00000029,-0.00000040,-0.00000032,0.0000
 0028,-0.00000071,-0.00000088,0.00000041,-0.00000019,0.00000049,0.00000
 014,-0.00000032,-0.00000027,-0.00000003,-0.00000043,-0.00000079,0.0000
 0007,-0.00000051,-0.00000056,0.00000032,-0.00000027,-0.00000007,0.0000
 0034,-0.00000021,0.00000044,0.00000005,-0.00000019,-0.00000045,-0.0000
 0021,-0.00000011,-0.00000050,0.00000014,-0.00000023,-0.00000026\\\@


 OUR LITTLE SYSTEMS HAVE THEIR DAY,    
   THEY HAVE THEIR DAY AND CEASE TO BE.
   THEY ARE BUT BROKEN LIGHTS OF THEE, 
 AND THOU, OH LORD, ART MORE THAN THEY.
          -------------------          
 LET KNOWLEDGE GROW FROM MORE TO MORE, 
   BUT MORE OF REVERENCE IN US DWELL.  
   THAT MIND AND SOUL, ACCORDING WELL, 
 MAY MAKE ONE MUSIC AS BEFORE.....     
          -------------------          
                    LORD TENNYSON      
 Job cpu time:       1 days  7 hours 20 minutes  6.4 seconds.
 Elapsed time:       0 days  1 hours  7 minutes 12.2 seconds.
 File lengths (MBytes):  RWF=   1236 Int=      0 D2E=      0 Chk=     32 Scr=      8
 Normal termination of Gaussian 16 at Sun Feb 26 13:01:48 2023.
