 Entering Gaussian System, Link 0=g16
 Input=NicPyWa4h3wB97XD130K.gjf
 Output=NicPyWa4h3wB97XD130K.log
 Initial command:
 /sw/contrib/gaussian/g16/A03/g16/l1.exe "/gscratch/scrubbed/gds001/Gau-25614.inp" -scrdir="/gscratch/scrubbed/gds001/"
 Entering Link 1 = /sw/contrib/gaussian/g16/A03/g16/l1.exe PID=     25617.
  
 Copyright (c) 1988,1990,1992,1993,1995,1998,2003,2009,2016,
            Gaussian, Inc.  All Rights Reserved.
  
 This is part of the Gaussian(R) 16 program.  It is based on
 the Gaussian(R) 09 system (copyright 2009, Gaussian, Inc.),
 the Gaussian(R) 03 system (copyright 2003, Gaussian, Inc.),
 the Gaussian(R) 98 system (copyright 1998, Gaussian, Inc.),
 the Gaussian(R) 94 system (copyright 1995, Gaussian, Inc.),
 the Gaussian 92(TM) system (copyright 1992, Gaussian, Inc.),
 the Gaussian 90(TM) system (copyright 1990, Gaussian, Inc.),
 the Gaussian 88(TM) system (copyright 1988, Gaussian, Inc.),
 the Gaussian 86(TM) system (copyright 1986, Carnegie Mellon
 University), and the Gaussian 82(TM) system (copyright 1983,
 Carnegie Mellon University). Gaussian is a federally registered
 trademark of Gaussian, Inc.
  
 This software contains proprietary and confidential information,
 including trade secrets, belonging to Gaussian, Inc.
  
 This software is provided under written license and may be
 used, copied, transmitted, or stored only in accord with that
 written license.
  
 The following legend is applicable only to US Government
 contracts under FAR:
  
                    RESTRICTED RIGHTS LEGEND
  
 Use, reproduction and disclosure by the US Government is
 subject to restrictions as set forth in subparagraphs (a)
 and (c) of the Commercial Computer Software - Restricted
 Rights clause in FAR 52.227-19.
  
 Gaussian, Inc.
 340 Quinnipiac St., Bldg. 40, Wallingford CT 06492
  
  
 ---------------------------------------------------------------
 Warning -- This program may not be used in any manner that
 competes with the business of Gaussian, Inc. or will provide
 assistance to any competitor of Gaussian, Inc.  The licensee
 of this program is prohibited from giving any competitor of
 Gaussian, Inc. access to this program.  By using this program,
 the user acknowledges that Gaussian, Inc. is engaged in the
 business of creating and licensing software in the field of
 computational chemistry and represents and warrants to the
 licensee that it is not a competitor of Gaussian, Inc. and that
 it will not use this program in any manner prohibited above.
 ---------------------------------------------------------------
  

 Cite this work as:
 Gaussian 16, Revision A.03,
 M. J. Frisch, G. W. Trucks, H. B. Schlegel, G. E. Scuseria, 
 M. A. Robb, J. R. Cheeseman, G. Scalmani, V. Barone, 
 G. A. Petersson, H. Nakatsuji, X. Li, M. Caricato, A. V. Marenich, 
 J. Bloino, B. G. Janesko, R. Gomperts, B. Mennucci, H. P. Hratchian, 
 J. V. Ortiz, A. F. Izmaylov, J. L. Sonnenberg, D. Williams-Young, 
 F. Ding, F. Lipparini, F. Egidi, J. Goings, B. Peng, A. Petrone, 
 T. Henderson, D. Ranasinghe, V. G. Zakrzewski, J. Gao, N. Rega, 
 G. Zheng, W. Liang, M. Hada, M. Ehara, K. Toyota, R. Fukuda, 
 J. Hasegawa, M. Ishida, T. Nakajima, Y. Honda, O. Kitao, H. Nakai, 
 T. Vreven, K. Throssell, J. A. Montgomery, Jr., J. E. Peralta, 
 F. Ogliaro, M. J. Bearpark, J. J. Heyd, E. N. Brothers, K. N. Kudin, 
 V. N. Staroverov, T. A. Keith, R. Kobayashi, J. Normand, 
 K. Raghavachari, A. P. Rendell, J. C. Burant, S. S. Iyengar, 
 J. Tomasi, M. Cossi, J. M. Millam, M. Klene, C. Adamo, R. Cammi, 
 J. W. Ochterski, R. L. Martin, K. Morokuma, O. Farkas, 
 J. B. Foresman, and D. J. Fox, Gaussian, Inc., Wallingford CT, 2016.
 
 ******************************************
 Gaussian 16:  ES64L-G16RevA.03 25-Dec-2016
                12-Jul-2021 
 ******************************************
 %nprocshared=28
 Will use up to   28 processors via shared memory.
 %mem=41GB
 %chk=NicPyWa4h3.chk
 ---------------------------------------------
 # wB97XD/aug-cc-pVDZ opt freq Temperature=130
 ---------------------------------------------
 1/18=20,19=15,26=3,38=1,112=130000/1,3;
 2/9=110,12=2,17=6,18=5,40=1/2;
 3/5=16,7=10,11=2,25=1,30=1,71=1,74=-58/1,2,3;
 4//1;
 5/5=2,38=5/2;
 6/7=2,8=2,9=2,10=2,28=1/1;
 7//1,2,3,16;
 1/18=20,19=15,26=3/3(2);
 2/9=110/2;
 99//99;
 2/9=110/2;
 3/5=16,7=10,11=2,25=1,30=1,71=1,74=-58/1,2,3;
 4/5=5,16=3,69=1/1;
 5/5=2,38=5/2;
 7//1,2,3,16;
 1/18=20,19=15,26=3/3(-5);
 2/9=110/2;
 6/7=2,8=2,9=2,10=2,19=2,28=1/1;
 99/9=1/99;
 --------
 Nicotine
 --------
 Symbolic Z-matrix:
 Charge =  1 Multiplicity = 1
 C                    -1.76329   2.21834  -0.9033 
 C                    -1.36962   1.00508  -0.3342 
 C                    -0.14314   0.97817   0.32217 
 N                     0.61854   2.07725   0.38876 
 C                     0.25742   3.25012  -0.15345 
 C                    -0.9532    3.35114  -0.81148 
 C                    -2.24899  -0.22109  -0.39816 
 N                    -1.53328  -1.42934  -0.8336 
 C                    -2.48579  -2.52576  -0.57465 
 C                    -3.05974  -2.17903   0.81012 
 C                    -2.83723  -0.65492   0.95973 
 O                     2.98993   1.55957   1.37189 
 O                     2.9437   -0.65946   0.00674 
 O                     0.67585  -2.04579   0.78883 
 H                    -1.97081  -3.49279  -0.60459 
 H                    -4.11782  -2.4512    0.87759 
 H                    -2.53029  -2.72149   1.60092 
 H                    -3.75614  -0.10371   1.18569 
 H                    -2.1185   -0.44388   1.76101 
 H                    -3.28648  -2.54315  -1.33134 
 H                    -3.08201   0.00258  -1.08848 
 H                     0.26085   0.0889    0.80374 
 H                     0.95895   4.07357  -0.04494 
 H                    -1.25323   4.29849  -1.25283 
 H                    -2.71652   2.28124  -1.42926 
 C                    -1.15541  -1.37682  -2.25585 
 H                     1.56156   1.97675   0.86999 
 H                    -0.08391  -1.93522   0.1697 
 H                     0.64744  -2.94467   1.12305 
 H                     3.13328   0.67625   0.94101 
 H                     3.31424   1.50667   2.27328 
 H                     3.6837   -1.15194  -0.38767 
 H                     2.25825  -1.30536   0.25116 
 O                     5.04563  -2.09865  -1.1209 
 H                     5.33719  -1.97587  -2.02809 
 H                     5.82699  -2.36903  -0.63148 
 H                    -0.64832  -2.32213  -2.54476 
 H                    -0.43794  -0.54708  -2.42928 
 H                    -2.04323  -1.22774  -2.90966 
 
 Add virtual bond connecting atoms H27        and O12        Dist= 2.97D+00.
 Add virtual bond connecting atoms H30        and O13        Dist= 3.10D+00.
 Add virtual bond connecting atoms O34        and H32        Dist= 3.43D+00.
 Add virtual bond connecting atoms N8         and H28        Dist= 3.47D+00.
 Add virtual bond connecting atoms H33        and O14        Dist= 3.45D+00.

 GradGradGradGradGradGradGradGradGradGradGradGradGradGradGradGradGradGrad
 Berny optimization.
 Initialization pass.
                           ----------------------------
                           !    Initial Parameters    !
                           ! (Angstroms and Degrees)  !
 --------------------------                            --------------------------
 ! Name  Definition              Value          Derivative Info.                !
 --------------------------------------------------------------------------------
 ! R1    R(1,2)                  1.3967         estimate D2E/DX2                !
 ! R2    R(1,6)                  1.3957         estimate D2E/DX2                !
 ! R3    R(1,25)                 1.0905         estimate D2E/DX2                !
 ! R4    R(2,3)                  1.3913         estimate D2E/DX2                !
 ! R5    R(2,7)                  1.5102         estimate D2E/DX2                !
 ! R6    R(3,4)                  1.3389         estimate D2E/DX2                !
 ! R7    R(3,22)                 1.089          estimate D2E/DX2                !
 ! R8    R(4,5)                  1.3417         estimate D2E/DX2                !
 ! R9    R(4,27)                 1.0635         estimate D2E/DX2                !
 ! R10   R(5,6)                  1.3816         estimate D2E/DX2                !
 ! R11   R(5,23)                 1.0872         estimate D2E/DX2                !
 ! R12   R(6,24)                 1.0873         estimate D2E/DX2                !
 ! R13   R(7,8)                  1.4703         estimate D2E/DX2                !
 ! R14   R(7,11)                 1.5421         estimate D2E/DX2                !
 ! R15   R(7,21)                 1.1048         estimate D2E/DX2                !
 ! R16   R(8,9)                  1.4753         estimate D2E/DX2                !
 ! R17   R(8,26)                 1.4725         estimate D2E/DX2                !
 ! R18   R(8,28)                 1.8339         estimate D2E/DX2                !
 ! R19   R(9,10)                 1.5386         estimate D2E/DX2                !
 ! R20   R(9,15)                 1.096          estimate D2E/DX2                !
 ! R21   R(9,20)                 1.1018         estimate D2E/DX2                !
 ! R22   R(10,11)                1.5475         estimate D2E/DX2                !
 ! R23   R(10,16)                1.0946         estimate D2E/DX2                !
 ! R24   R(10,17)                1.0954         estimate D2E/DX2                !
 ! R25   R(11,18)                1.0951         estimate D2E/DX2                !
 ! R26   R(11,19)                1.0969         estimate D2E/DX2                !
 ! R27   R(12,27)                1.5704         estimate D2E/DX2                !
 ! R28   R(12,30)                0.9932         estimate D2E/DX2                !
 ! R29   R(12,31)                0.9594         estimate D2E/DX2                !
 ! R30   R(13,30)                1.641          estimate D2E/DX2                !
 ! R31   R(13,32)                0.9725         estimate D2E/DX2                !
 ! R32   R(13,33)                0.973          estimate D2E/DX2                !
 ! R33   R(14,28)                0.9863         estimate D2E/DX2                !
 ! R34   R(14,29)                0.9594         estimate D2E/DX2                !
 ! R35   R(14,33)                1.8279         estimate D2E/DX2                !
 ! R36   R(26,37)                1.111          estimate D2E/DX2                !
 ! R37   R(26,38)                1.1105         estimate D2E/DX2                !
 ! R38   R(26,39)                1.1126         estimate D2E/DX2                !
 ! R39   R(32,34)                1.8135         estimate D2E/DX2                !
 ! R40   R(34,35)                0.9608         estimate D2E/DX2                !
 ! R41   R(34,36)                0.9608         estimate D2E/DX2                !
 ! A1    A(2,1,6)              120.9733         estimate D2E/DX2                !
 ! A2    A(2,1,25)             119.5373         estimate D2E/DX2                !
 ! A3    A(6,1,25)             119.4893         estimate D2E/DX2                !
 ! A4    A(1,2,3)              117.2241         estimate D2E/DX2                !
 ! A5    A(1,2,7)              121.593          estimate D2E/DX2                !
 ! A6    A(3,2,7)              121.1683         estimate D2E/DX2                !
 ! A7    A(2,3,4)              120.6028         estimate D2E/DX2                !
 ! A8    A(2,3,22)             123.4652         estimate D2E/DX2                !
 ! A9    A(4,3,22)             115.9317         estimate D2E/DX2                !
 ! A10   A(3,4,5)              122.9839         estimate D2E/DX2                !
 ! A11   A(3,4,27)             116.7047         estimate D2E/DX2                !
 ! A12   A(5,4,27)             120.2762         estimate D2E/DX2                !
 ! A13   A(4,5,6)              119.4891         estimate D2E/DX2                !
 ! A14   A(4,5,23)             116.6224         estimate D2E/DX2                !
 ! A15   A(6,5,23)             123.8878         estimate D2E/DX2                !
 ! A16   A(1,6,5)              118.7234         estimate D2E/DX2                !
 ! A17   A(1,6,24)             121.3524         estimate D2E/DX2                !
 ! A18   A(5,6,24)             119.9218         estimate D2E/DX2                !
 ! A19   A(2,7,8)              113.3479         estimate D2E/DX2                !
 ! A20   A(2,7,11)             114.4071         estimate D2E/DX2                !
 ! A21   A(2,7,21)             107.5257         estimate D2E/DX2                !
 ! A22   A(8,7,11)             102.4315         estimate D2E/DX2                !
 ! A23   A(8,7,21)             110.3879         estimate D2E/DX2                !
 ! A24   A(11,7,21)            108.6352         estimate D2E/DX2                !
 ! A25   A(7,8,9)              104.1508         estimate D2E/DX2                !
 ! A26   A(7,8,26)             112.4359         estimate D2E/DX2                !
 ! A27   A(7,8,28)             116.7038         estimate D2E/DX2                !
 ! A28   A(9,8,26)             111.2054         estimate D2E/DX2                !
 ! A29   A(9,8,28)             102.0774         estimate D2E/DX2                !
 ! A30   A(26,8,28)            109.5992         estimate D2E/DX2                !
 ! A31   A(8,9,10)             103.3761         estimate D2E/DX2                !
 ! A32   A(8,9,15)             110.3387         estimate D2E/DX2                !
 ! A33   A(8,9,20)             111.1233         estimate D2E/DX2                !
 ! A34   A(10,9,15)            113.4969         estimate D2E/DX2                !
 ! A35   A(10,9,20)            110.5229         estimate D2E/DX2                !
 ! A36   A(15,9,20)            107.9853         estimate D2E/DX2                !
 ! A37   A(9,10,11)            104.7926         estimate D2E/DX2                !
 ! A38   A(9,10,16)            111.102          estimate D2E/DX2                !
 ! A39   A(9,10,17)            110.9677         estimate D2E/DX2                !
 ! A40   A(11,10,16)           112.2047         estimate D2E/DX2                !
 ! A41   A(11,10,17)           110.391          estimate D2E/DX2                !
 ! A42   A(16,10,17)           107.4327         estimate D2E/DX2                !
 ! A43   A(7,11,10)            104.2876         estimate D2E/DX2                !
 ! A44   A(7,11,18)            111.1098         estimate D2E/DX2                !
 ! A45   A(7,11,19)            109.8261         estimate D2E/DX2                !
 ! A46   A(10,11,18)           113.2669         estimate D2E/DX2                !
 ! A47   A(10,11,19)           110.7527         estimate D2E/DX2                !
 ! A48   A(18,11,19)           107.5925         estimate D2E/DX2                !
 ! A49   A(27,12,30)           103.2314         estimate D2E/DX2                !
 ! A50   A(27,12,31)           128.4889         estimate D2E/DX2                !
 ! A51   A(30,12,31)           108.0452         estimate D2E/DX2                !
 ! A52   A(30,13,32)           123.724          estimate D2E/DX2                !
 ! A53   A(30,13,33)           118.5993         estimate D2E/DX2                !
 ! A54   A(32,13,33)           107.5642         estimate D2E/DX2                !
 ! A55   A(28,14,29)           107.5104         estimate D2E/DX2                !
 ! A56   A(28,14,33)           115.8997         estimate D2E/DX2                !
 ! A57   A(29,14,33)           120.5048         estimate D2E/DX2                !
 ! A58   A(8,26,37)            109.7529         estimate D2E/DX2                !
 ! A59   A(8,26,38)            110.0761         estimate D2E/DX2                !
 ! A60   A(8,26,39)            111.5667         estimate D2E/DX2                !
 ! A61   A(37,26,38)           107.4724         estimate D2E/DX2                !
 ! A62   A(37,26,39)           108.9909         estimate D2E/DX2                !
 ! A63   A(38,26,39)           108.8828         estimate D2E/DX2                !
 ! A64   A(12,30,13)           162.5948         estimate D2E/DX2                !
 ! A65   A(13,33,14)           162.2898         estimate D2E/DX2                !
 ! A66   A(32,34,35)           122.8858         estimate D2E/DX2                !
 ! A67   A(32,34,36)           123.4827         estimate D2E/DX2                !
 ! A68   A(35,34,36)           105.6733         estimate D2E/DX2                !
 ! A69   L(4,27,12,14,-1)      170.5428         estimate D2E/DX2                !
 ! A70   L(8,28,14,3,-1)       170.1972         estimate D2E/DX2                !
 ! A71   L(13,32,34,37,-1)     179.2757         estimate D2E/DX2                !
 ! A72   L(4,27,12,14,-2)      171.8006         estimate D2E/DX2                !
 ! A73   L(8,28,14,3,-2)       176.0709         estimate D2E/DX2                !
 ! A74   L(13,32,34,37,-2)     180.8355         estimate D2E/DX2                !
 ! D1    D(6,1,2,3)             -0.0257         estimate D2E/DX2                !
 ! D2    D(6,1,2,7)            178.6005         estimate D2E/DX2                !
 ! D3    D(25,1,2,3)           179.8277         estimate D2E/DX2                !
 ! D4    D(25,1,2,7)            -1.546          estimate D2E/DX2                !
 ! D5    D(2,1,6,5)              0.5111         estimate D2E/DX2                !
 ! D6    D(2,1,6,24)           179.9535         estimate D2E/DX2                !
 ! D7    D(25,1,6,5)          -179.3424         estimate D2E/DX2                !
 ! D8    D(25,1,6,24)            0.1            estimate D2E/DX2                !
 ! D9    D(1,2,3,4)             -0.3844         estimate D2E/DX2                !
 ! D10   D(1,2,3,22)           179.8158         estimate D2E/DX2                !
 ! D11   D(7,2,3,4)           -179.0169         estimate D2E/DX2                !
 ! D12   D(7,2,3,22)             1.1834         estimate D2E/DX2                !
 ! D13   D(1,2,7,8)            131.947          estimate D2E/DX2                !
 ! D14   D(1,2,7,11)          -111.0937         estimate D2E/DX2                !
 ! D15   D(1,2,7,21)             9.6553         estimate D2E/DX2                !
 ! D16   D(3,2,7,8)            -49.4807         estimate D2E/DX2                !
 ! D17   D(3,2,7,11)            67.4786         estimate D2E/DX2                !
 ! D18   D(3,2,7,21)          -171.7723         estimate D2E/DX2                !
 ! D19   D(2,3,4,5)              0.3085         estimate D2E/DX2                !
 ! D20   D(2,3,4,27)          -177.5366         estimate D2E/DX2                !
 ! D21   D(22,3,4,5)          -179.8773         estimate D2E/DX2                !
 ! D22   D(22,3,4,27)            2.2776         estimate D2E/DX2                !
 ! D23   D(3,4,5,6)              0.1988         estimate D2E/DX2                !
 ! D24   D(3,4,5,23)          -179.5084         estimate D2E/DX2                !
 ! D25   D(27,4,5,6)           177.9697         estimate D2E/DX2                !
 ! D26   D(27,4,5,23)           -1.7375         estimate D2E/DX2                !
 ! D27   D(3,4,12,30)           38.1106         estimate D2E/DX2                !
 ! D28   D(3,4,12,31)          -85.4198         estimate D2E/DX2                !
 ! D29   D(5,4,12,30)         -133.3874         estimate D2E/DX2                !
 ! D30   D(5,4,12,31)          103.0822         estimate D2E/DX2                !
 ! D31   D(4,5,6,1)             -0.5978         estimate D2E/DX2                !
 ! D32   D(4,5,6,24)           179.9516         estimate D2E/DX2                !
 ! D33   D(23,5,6,1)           179.0869         estimate D2E/DX2                !
 ! D34   D(23,5,6,24)           -0.3637         estimate D2E/DX2                !
 ! D35   D(2,7,8,9)            169.3806         estimate D2E/DX2                !
 ! D36   D(2,7,8,26)           -70.1097         estimate D2E/DX2                !
 ! D37   D(2,7,8,28)            57.7653         estimate D2E/DX2                !
 ! D38   D(11,7,8,9)            45.5987         estimate D2E/DX2                !
 ! D39   D(11,7,8,26)          166.1084         estimate D2E/DX2                !
 ! D40   D(11,7,8,28)          -66.0166         estimate D2E/DX2                !
 ! D41   D(21,7,8,9)           -69.933          estimate D2E/DX2                !
 ! D42   D(21,7,8,26)           50.5767         estimate D2E/DX2                !
 ! D43   D(21,7,8,28)          178.4518         estimate D2E/DX2                !
 ! D44   D(2,7,11,10)         -152.8821         estimate D2E/DX2                !
 ! D45   D(2,7,11,18)           84.7562         estimate D2E/DX2                !
 ! D46   D(2,7,11,19)          -34.164          estimate D2E/DX2                !
 ! D47   D(8,7,11,10)          -29.8105         estimate D2E/DX2                !
 ! D48   D(8,7,11,18)         -152.1722         estimate D2E/DX2                !
 ! D49   D(8,7,11,19)           88.9075         estimate D2E/DX2                !
 ! D50   D(21,7,11,10)          86.9853         estimate D2E/DX2                !
 ! D51   D(21,7,11,18)         -35.3764         estimate D2E/DX2                !
 ! D52   D(21,7,11,19)        -154.2966         estimate D2E/DX2                !
 ! D53   D(7,8,9,10)           -43.0029         estimate D2E/DX2                !
 ! D54   D(7,8,9,15)          -164.6853         estimate D2E/DX2                !
 ! D55   D(7,8,9,20)            75.5638         estimate D2E/DX2                !
 ! D56   D(26,8,9,10)         -164.3352         estimate D2E/DX2                !
 ! D57   D(26,8,9,15)           73.9824         estimate D2E/DX2                !
 ! D58   D(26,8,9,20)          -45.7685         estimate D2E/DX2                !
 ! D59   D(28,8,9,10)           78.8594         estimate D2E/DX2                !
 ! D60   D(28,8,9,15)          -42.823          estimate D2E/DX2                !
 ! D61   D(28,8,9,20)         -162.5739         estimate D2E/DX2                !
 ! D62   D(7,8,14,29)          126.2182         estimate D2E/DX2                !
 ! D63   D(7,8,14,33)          -90.7002         estimate D2E/DX2                !
 ! D64   D(9,8,14,29)           13.8307         estimate D2E/DX2                !
 ! D65   D(9,8,14,33)          156.9123         estimate D2E/DX2                !
 ! D66   D(26,8,14,29)        -106.0578         estimate D2E/DX2                !
 ! D67   D(26,8,14,33)          37.0238         estimate D2E/DX2                !
 ! D68   D(7,8,26,37)         -178.1796         estimate D2E/DX2                !
 ! D69   D(7,8,26,38)           63.7279         estimate D2E/DX2                !
 ! D70   D(7,8,26,39)          -57.2672         estimate D2E/DX2                !
 ! D71   D(9,8,26,37)          -61.8262         estimate D2E/DX2                !
 ! D72   D(9,8,26,38)         -179.9187         estimate D2E/DX2                !
 ! D73   D(9,8,26,39)           59.0862         estimate D2E/DX2                !
 ! D74   D(28,8,26,37)          50.2835         estimate D2E/DX2                !
 ! D75   D(28,8,26,38)         -67.809          estimate D2E/DX2                !
 ! D76   D(28,8,26,39)         171.1959         estimate D2E/DX2                !
 ! D77   D(8,9,10,11)           22.8384         estimate D2E/DX2                !
 ! D78   D(8,9,10,16)          144.2294         estimate D2E/DX2                !
 ! D79   D(8,9,10,17)          -96.3131         estimate D2E/DX2                !
 ! D80   D(15,9,10,11)         142.3725         estimate D2E/DX2                !
 ! D81   D(15,9,10,16)         -96.2365         estimate D2E/DX2                !
 ! D82   D(15,9,10,17)          23.221          estimate D2E/DX2                !
 ! D83   D(20,9,10,11)         -96.1441         estimate D2E/DX2                !
 ! D84   D(20,9,10,16)          25.2469         estimate D2E/DX2                !
 ! D85   D(20,9,10,17)         144.7044         estimate D2E/DX2                !
 ! D86   D(9,10,11,7)            4.2097         estimate D2E/DX2                !
 ! D87   D(9,10,11,18)         125.1439         estimate D2E/DX2                !
 ! D88   D(9,10,11,19)        -113.8748         estimate D2E/DX2                !
 ! D89   D(16,10,11,7)        -116.4535         estimate D2E/DX2                !
 ! D90   D(16,10,11,18)          4.4808         estimate D2E/DX2                !
 ! D91   D(16,10,11,19)        125.462          estimate D2E/DX2                !
 ! D92   D(17,10,11,7)         123.7484         estimate D2E/DX2                !
 ! D93   D(17,10,11,18)       -115.3173         estimate D2E/DX2                !
 ! D94   D(17,10,11,19)          5.6639         estimate D2E/DX2                !
 ! D95   D(27,12,30,13)          6.6733         estimate D2E/DX2                !
 ! D96   D(31,12,30,13)        145.1781         estimate D2E/DX2                !
 ! D97   D(32,13,30,12)        146.0563         estimate D2E/DX2                !
 ! D98   D(33,13,30,12)        -72.94           estimate D2E/DX2                !
 ! D99   D(30,13,34,35)        -97.5653         estimate D2E/DX2                !
 ! D100  D(30,13,34,36)         47.3246         estimate D2E/DX2                !
 ! D101  D(33,13,34,35)        118.075          estimate D2E/DX2                !
 ! D102  D(33,13,34,36)        -97.0351         estimate D2E/DX2                !
 ! D103  D(30,13,33,14)         43.4981         estimate D2E/DX2                !
 ! D104  D(32,13,33,14)       -169.7983         estimate D2E/DX2                !
 ! D105  D(28,14,33,13)         67.3145         estimate D2E/DX2                !
 ! D106  D(29,14,33,13)       -160.2871         estimate D2E/DX2                !
 --------------------------------------------------------------------------------
 Trust Radius=3.00D-01 FncErr=1.00D-07 GrdErr=1.00D-06 EigMax=2.50D+02 EigMin=1.00D-04
 Number of steps in this run=    231 maximum allowed number of steps=    234.
 GradGradGradGradGradGradGradGradGradGradGradGradGradGradGradGradGradGrad

                          Input orientation:                          
 ---------------------------------------------------------------------
 Center     Atomic      Atomic             Coordinates (Angstroms)
 Number     Number       Type             X           Y           Z
 ---------------------------------------------------------------------
      1          6           0       -1.763292    2.218336   -0.903297
      2          6           0       -1.369624    1.005078   -0.334200
      3          6           0       -0.143143    0.978171    0.322170
      4          7           0        0.618538    2.077250    0.388764
      5          6           0        0.257417    3.250120   -0.153453
      6          6           0       -0.953203    3.351143   -0.811477
      7          6           0       -2.248986   -0.221087   -0.398163
      8          7           0       -1.533281   -1.429342   -0.833596
      9          6           0       -2.485793   -2.525763   -0.574653
     10          6           0       -3.059744   -2.179033    0.810123
     11          6           0       -2.837227   -0.654922    0.959733
     12          8           0        2.989932    1.559569    1.371886
     13          8           0        2.943695   -0.659461    0.006737
     14          8           0        0.675853   -2.045786    0.788832
     15          1           0       -1.970814   -3.492793   -0.604594
     16          1           0       -4.117824   -2.451200    0.877588
     17          1           0       -2.530285   -2.721493    1.600920
     18          1           0       -3.756135   -0.103714    1.185688
     19          1           0       -2.118504   -0.443878    1.761005
     20          1           0       -3.286480   -2.543145   -1.331340
     21          1           0       -3.082014    0.002584   -1.088481
     22          1           0        0.260851    0.088896    0.803744
     23          1           0        0.958945    4.073575   -0.044936
     24          1           0       -1.253231    4.298491   -1.252832
     25          1           0       -2.716515    2.281243   -1.429261
     26          6           0       -1.155414   -1.376825   -2.255845
     27          1           0        1.561561    1.976746    0.869991
     28          1           0       -0.083913   -1.935220    0.169704
     29          1           0        0.647435   -2.944673    1.123047
     30          1           0        3.133281    0.676246    0.941006
     31          1           0        3.314235    1.506672    2.273278
     32          1           0        3.683696   -1.151935   -0.387673
     33          1           0        2.258245   -1.305360    0.251158
     34          8           0        5.045628   -2.098646   -1.120903
     35          1           0        5.337189   -1.975872   -2.028089
     36          1           0        5.826990   -2.369031   -0.631476
     37          1           0       -0.648322   -2.322134   -2.544763
     38          1           0       -0.437944   -0.547078   -2.429279
     39          1           0       -2.043233   -1.227739   -2.909657
 ---------------------------------------------------------------------
                    Distance matrix (angstroms):
                    1          2          3          4          5
     1  C    0.000000
     2  C    1.396725   0.000000
     3  C    2.380055   1.391331   0.000000
     4  N    2.713382   2.371712   1.338868   0.000000
     5  C    2.389583   2.778515   2.355508   1.341653   0.000000
     6  C    1.395681   2.430066   2.751790   2.352393   1.381594
     7  C    2.538079   1.510248   2.528176   3.758231   4.288498
     8  N    3.655587   2.490498   3.010714   4.291932   5.056338
     9  C    4.810041   3.710861   4.309275   5.634960   6.408076
    10  C    4.894226   3.782135   4.325806   5.641210   6.434884
    11  C    3.588848   2.565876   3.214276   4.442193   5.105424
    12  O    5.310703   4.714225   3.355009   2.618784   3.556861
    13  O    5.591565   4.635909   3.508547   3.611355   4.746217
    14  O    5.195716   3.840957   3.167466   4.142797   5.395332
    15  H    5.722699   4.545920   4.918210   6.222289   7.115857
    16  H    5.524485   4.578962   5.278936   6.571068   7.260222
    17  H    5.591180   4.356507   4.584884   5.866203   6.819770
    18  H    3.705023   3.038900   3.869089   4.952722   5.399083
    19  H    3.783129   2.655217   2.827458   3.966173   4.791218
    20  H    5.017472   4.154336   5.001433   6.289354   6.892644
    21  H    2.585126   2.122784   3.402744   4.492280   4.751060
    22  H    3.397890   2.189236   1.089006   2.062450   3.302965
    23  H    3.404302   3.862846   3.306190   2.071059   1.087196
    24  H    2.170111   3.421111   3.838939   3.336505   2.142376
    25  H    1.090518   2.154500   3.374574   3.803867   3.377970
    26  C    3.888970   3.067910   3.635500   4.698031   5.274918
    27  H    3.775919   3.314523   2.050189   1.063472   2.090385
    28  H    4.606916   3.248434   2.917979   4.079380   5.206600
    29  H    6.047672   4.668258   4.081069   5.075403   6.336957
    30  H    5.454899   4.691528   3.347995   2.931163   4.011641
    31  H    6.031449   5.384150   4.004947   3.338223   4.274666
    32  H    6.426062   5.494689   4.436882   4.519478   5.583219
    33  H    5.470097   4.340760   3.314547   3.761599   4.991936
    34  O    8.065053   7.169900   6.202629   6.270273   7.243771
    35  H    8.323062   7.532374   6.654632   6.673428   7.525247
    36  H    8.873004   7.953882   6.910549   6.923747   7.926128
    37  H    4.955142   4.059212   4.400741   5.437379   6.130966
    38  H    3.425301   2.768858   3.159710   3.993072   4.481253
    39  H    3.997409   3.474507   4.349837   5.374715   5.739414
                    6          7          8          9         10
     6  C    0.000000
     7  C    3.822396   0.000000
     8  N    4.815601   1.470277   0.000000
     9  C    6.078071   2.323523   1.475286   0.000000
    10  C    6.135955   2.439434   2.365151   1.538586   0.000000
    11  C    4.768154   1.542116   2.348623   2.444973   1.547518
    12  O    4.850271   5.809481   5.852965   7.103697   7.133814
    13  O    5.651569   5.226859   4.619761   5.770653   6.244662
    14  O    5.860175   3.645980   2.809368   3.476417   3.738033
    15  H    6.922268   3.289993   2.121723   1.096014   2.216564
    16  H    6.821653   3.177027   3.263772   2.185884   1.094605
    17  H    6.721886   3.213642   2.930962   2.184813   1.095422
    18  H    4.876590   2.189488   3.282663   3.252521   2.221026
    19  H    4.730515   2.174550   2.836473   3.150309   2.191089
    20  H    6.360587   2.709090   2.135887   1.101806   2.183999
    21  H    3.977614   1.104764   2.124606   2.648025   2.892170
    22  H    3.837333   2.799991   2.864409   4.034907   4.021181
    23  H    2.183072   5.372124   6.092230   7.463115   7.481717
    24  H    1.087327   4.706227   5.749979   6.967753   7.034031
    25  H    2.153047   2.746525   3.939962   4.887831   5.002670
    26  C    4.947805   2.445938   1.472527   2.432360   3.697320
    27  H    3.322701   4.578095   4.907310   6.224199   6.215347
    28  H    5.446468   2.819267   1.833900   2.582990   3.053711
    29  H    6.778032   4.256907   3.298515   3.588146   3.798329
    30  H    5.188990   5.618485   5.418442   6.642596   6.820800
    31  H    5.579320   6.408680   6.463069   7.616533   7.506854
    32  H    6.477511   6.005273   5.243343   6.323366   6.925578
    33  H    5.755485   4.681068   3.945597   4.967620   5.418187
    34  O    8.110605   7.566966   6.619105   7.563274   8.332609
    35  H    8.332243   7.955249   6.994917   7.975832   8.865958
    36  H    8.872644   8.359993   7.422766   8.314455   9.004907
    37  H    5.939975   3.403588   2.123281   2.701684   4.134089
    38  H    4.251930   2.740725   2.127053   3.398311   4.475582
    39  H    5.153318   2.713537   2.147259   2.707945   3.971777
                   11         12         13         14         15
    11  C    0.000000
    12  O    6.247369   0.000000
    13  O    5.858949   2.605737   0.000000
    14  O    3.782253   4.323598   2.770682   0.000000
    15  H    3.354296   7.351315   5.705602   3.322696   0.000000
    16  H    2.207553   8.176233   7.337149   4.811609   2.809169
    17  H    2.185418   6.989474   6.062825   3.375706   2.402541
    18  H    1.095115   6.950583   6.825431   4.855065   4.228278
    19  H    1.096877   5.501030   5.361883   3.364470   3.861833
    20  H    3.002704   7.970762   6.644832   4.521347   1.777911
    21  H    2.165044   6.733954   6.160112   4.673509   3.699537
    22  H    3.189935   3.151753   2.897052   2.174699   4.448847
    23  H    6.146460   3.528813   5.132595   6.182385   8.133058
    24  H    5.651618   5.691684   6.616796   6.938271   7.851066
    25  H    3.787206   6.397716   6.538181   5.928851   5.880105
    26  C    3.699944   6.242334   4.736727   3.615399   2.805143
    27  H    5.126701   1.570407   3.099208   4.119688   6.675922
    28  H    3.137522   4.807007   3.289457   0.986301   2.566314
    29  H    4.172829   5.083051   3.426536   0.959430   3.184401
    30  H    6.117134   0.993210   1.641010   3.670363   6.769162
    31  H    6.651193   0.959415   3.156999   4.667397   7.823589
    32  H    6.677197   3.305996   0.972467   3.351157   6.123737
    33  H    5.185459   3.162154   0.973020   1.827919   4.837573
    34  O    8.279661   4.880822   2.785848   4.769152   7.172216
    35  H    8.803015   5.437719   3.406210   5.446833   7.598309
    36  H    8.974340   5.243687   3.412233   5.353128   7.878408
    37  H    4.455602   6.606410   4.709270   3.597591   2.623677
    38  H    4.153744   5.535084   4.169207   3.720606   3.788984
    39  H    3.991331   7.171712   5.804976   4.662773   3.232496
                   16         17         18         19         20
    16  H    0.000000
    17  H    1.765375   0.000000
    18  H    2.395086   2.920256   0.000000
    19  H    2.967667   2.320069   1.768767   0.000000
    20  H    2.361980   3.033445   3.536500   3.915825   0.000000
    21  H    3.310496   3.867542   2.374359   3.040929   2.565448
    22  H    5.062641   4.040324   4.039698   2.619452   4.906096
    23  H    8.318493   7.813867   6.418423   5.756691   7.966144
    24  H    7.635634   7.684721   5.620526   5.685242   7.137804
    25  H    5.448049   5.851841   3.688738   4.238124   4.858927
    26  C    4.443935   4.309645   4.497634   4.234740   2.599318
    27  H    7.201540   6.273030   5.718905   4.494019   6.984180
    28  H    4.127926   2.941316   4.227511   2.982600   3.588752
    29  H    4.797026   3.221192   5.240840   3.783039   4.654130
    30  H    7.897054   6.637477   6.937742   5.432156   7.532687
    31  H    8.535116   7.244850   7.332553   5.794974   8.541881
    32  H    8.009537   6.710557   7.676283   6.227655   7.170030
    33  H    6.508427   5.172747   6.204036   4.709323   5.897490
    34  O    9.385474   8.074077   9.315103   7.897369   8.346609
    35  H    9.902836   8.696137   9.824555   8.502447   8.670347
    36  H   10.058994   8.657475  10.013492   8.518278   9.141962
    37  H    4.875098   4.570334   5.338178   4.922288   2.912236
    38  H    5.301185   5.034727   4.926961   4.515907   3.647452
    39  H    4.488207   4.776382   4.579226   4.736579   2.401466
                   21         22         23         24         25
    21  H    0.000000
    22  H    3.842227   0.000000
    23  H    5.830206   4.133432   0.000000
    24  H    4.671860   4.923681   2.530479   0.000000
    25  H    2.332811   4.319422   4.317154   2.498323   0.000000
    26  C    2.641457   3.676307   6.250239   5.764097   4.062233
    27  H    5.412552   2.293515   2.365783   4.221366   4.866335
    28  H    3.785066   2.148933   6.102396   6.500005   5.221670
    29  H    5.242706   3.074726   7.121589   7.856256   6.718678
    30  H    6.572863   2.935077   4.152308   6.097136   6.512626
    31  H    7.380766   3.673251   4.184555   6.410105   7.118897
    32  H    6.899194   3.830797   5.903193   7.404653   7.337187
    33  H    5.658950   2.497776   5.541552   6.782005   6.358912
    34  O    8.394926   5.602115   7.480307   8.978663   8.917924
    35  H    8.699433   6.168610   7.726430   9.132485   9.129281
    36  H    9.230588   6.251653   8.096238   9.745330   9.759764
    37  H    3.667141   4.225182   7.052484   6.772568   5.168447
    38  H    3.015124   3.368266   5.383942   5.052550   3.767137
    39  H    2.430934   4.564173   6.732283   5.823091   3.867536
                   26         27         28         29         30
    26  C    0.000000
    27  H    5.329094   0.000000
    28  H    2.709836   4.301333   0.000000
    29  H    4.138276   5.011988   1.569308   0.000000
    30  H    5.729560   2.041237   4.214855   4.395864   0.000000
    31  H    6.986077   2.293916   5.274377   5.315009   1.580285
    32  H    5.192074   3.984196   3.888326   3.836022   2.326068
    33  H    4.235946   3.411824   2.426739   2.458098   2.273398
    34  O    6.345238   5.719371   5.291934   5.009508   3.950768
    35  H    6.524157   6.186875   5.849811   5.732541   4.550436
    36  H    7.237196   6.271688   5.980707   5.498864   4.359183
    37  H    1.110956   5.918150   2.799391   3.939463   5.953267
    38  H    1.110550   4.610086   2.967657   4.421033   5.060533
    39  H    1.112618   6.127724   3.717785   5.142981   6.726742
                   31         32         33         34         35
    31  H    0.000000
    32  H    3.779597   0.000000
    33  H    3.620995   1.569572   0.000000
    34  O    5.245618   1.813490   3.206456   0.000000
    35  H    5.892556   2.470602   3.889017   0.960764   0.000000
    36  H    5.456428   2.476787   3.827059   0.960819   1.531342
    37  H    7.319504   4.978834   4.159223   5.873534   6.017740
    38  H    6.356948   4.639173   3.876748   5.847117   5.962765
    39  H    7.939917   6.258104   5.338491   7.362749   7.470442
                   36         37         38         39
    36  H    0.000000
    37  H    6.752225   0.000000
    38  H    6.767644   1.791206   0.000000
    39  H    8.272428   1.810145   1.808594   0.000000
 Stoichiometry    C10H23N2O4(1+)
 Framework group  C1[X(C10H23N2O4)]
 Deg. of freedom   111
 Full point group                 C1      NOp   1
 Largest Abelian subgroup         C1      NOp   1
 Largest concise Abelian subgroup C1      NOp   1
                         Standard orientation:                         
 ---------------------------------------------------------------------
 Center     Atomic      Atomic             Coordinates (Angstroms)
 Number     Number       Type             X           Y           Z
 ---------------------------------------------------------------------
      1          6           0        1.614659    2.326023    0.852464
      2          6           0        1.256690    1.135911    0.215022
      3          6           0        0.010881    1.094707   -0.403090
      4          7           0       -0.801307    2.158618   -0.371271
      5          6           0       -0.474937    3.308720    0.237645
      6          6           0        0.751759    3.422937    0.862924
      7          6           0        2.191997   -0.048938    0.168296
      8          7           0        1.546720   -1.315805    0.542968
      9          6           0        2.538153   -2.346497    0.180747
     10          6           0        3.048114   -1.882097   -1.194578
     11          6           0        2.752261   -0.363623   -1.233559
     12          8           0       -3.179320    1.595891   -1.312770
     13          8           0       -2.986532   -0.704044   -0.103225
     14          8           0       -0.686768   -1.926960   -1.047809
     15          1           0        2.068528   -3.336605    0.161141
     16          1           0        4.114431   -2.098969   -1.313298
     17          1           0        2.516795   -2.395353   -2.003416
     18          1           0        3.637155    0.244085   -1.450195
     19          1           0        1.997725   -0.134108   -1.995883
     20          1           0        3.364282   -2.376171    0.909175
     21          1           0        3.037296    0.167566    0.845866
     22          1           0       -0.368971    0.221219   -0.930979
     23          1           0       -1.216106    4.103536    0.207107
     24          1           0        1.023820    4.352064    1.357883
     25          1           0        2.581558    2.398854    1.351495
     26          6           0        1.215854   -1.375512    1.976599
     27          1           0       -1.754797    2.045832   -0.828555
     28          1           0        0.088034   -1.821927   -0.446610
     29          1           0       -0.629416   -2.799387   -1.442887
     30          1           0       -3.267931    0.680186   -0.938473
     31          1           0       -3.531627    1.587582   -2.205120
     32          1           0       -3.689673   -1.255930    0.279796
     33          1           0       -2.281502   -1.299269   -0.412109
     34          8           0       -4.981699   -2.312340    0.989312
     35          1           0       -5.247215   -2.263828    1.911384
     36          1           0       -5.766425   -2.586273    0.507298
     37          1           0        0.762004   -2.360755    2.216474
     38          1           0        0.468152   -0.593856    2.228150
     39          1           0        2.117959   -1.228343    2.611001
 ---------------------------------------------------------------------
 Rotational constants (GHZ):           0.4547679           0.3213785           0.2249808
 Standard basis: Aug-CC-pVDZ (5D, 7F)
 There are   607 symmetry adapted cartesian basis functions of A   symmetry.
 There are   575 symmetry adapted basis functions of A   symmetry.
   575 basis functions,   941 primitive gaussians,   607 cartesian basis functions
    64 alpha electrons       64 beta electrons
       nuclear repulsion energy      1217.6162149677 Hartrees.
 NAtoms=   39 NActive=   39 NUniq=   39 SFac= 1.00D+00 NAtFMM=   60 NAOKFM=F Big=F
 Integral buffers will be    131072 words long.
 Raffenetti 2 integral format.
 Two-electron integral symmetry is turned on.
 Nuclear repulsion after empirical dispersion term =     1217.5868000535 Hartrees.
 One-electron integrals computed using PRISM.
 NBasis=   575 RedAO= T EigKep=  1.92D-06  NBF=   575
 NBsUse=   575 1.00D-06 EigRej= -1.00D+00 NBFU=   575
 ExpMin= 2.97D-02 ExpMax= 1.17D+04 ExpMxC= 4.01D+02 IAcc=3 IRadAn=         5 AccDes= 0.00D+00
 Harris functional with IExCor= 4639 and IRadAn=       5 diagonalized for initial guess.
 HarFok:  IExCor= 4639 AccDes= 0.00D+00 IRadAn=         5 IDoV= 1 UseB2=F ITyADJ=14
 ICtDFT=  3500011 ScaDFX=  1.000000  1.000000  1.000000  1.000000
 FoFCou: FMM=F IPFlag=           0 FMFlag=      100000 FMFlg1=           0
         NFxFlg=           0 DoJE=T BraDBF=F KetDBF=T FulRan=T
         wScrn=  0.000000 ICntrl=       500 IOpCl=  0 I1Cent=   200000004 NGrid=           0
         NMat0=    1 NMatS0=      1 NMatT0=    0 NMatD0=    1 NMtDS0=    0 NMtDT0=    0
 Petite list used in FoFCou.
 Requested convergence on RMS density matrix=1.00D-08 within 128 cycles.
 Requested convergence on MAX density matrix=1.00D-06.
 Requested convergence on             energy=1.00D-06.
 No special actions if energy rises.
 SCF Done:  E(RwB97XD) =  -805.031559201     A.U. after   15 cycles
            NFock= 15  Conv=0.39D-08     -V/T= 2.0063

 **********************************************************************

            Population analysis using the SCF density.

 **********************************************************************

 Orbital symmetries:
       Occupied  (A) (A) (A) (A) (A) (A) (A) (A) (A) (A) (A) (A)
                 (A) (A) (A) (A) (A) (A) (A) (A) (A) (A) (A) (A)
                 (A) (A) (A) (A) (A) (A) (A) (A) (A) (A) (A) (A)
                 (A) (A) (A) (A) (A) (A) (A) (A) (A) (A) (A) (A)
                 (A) (A) (A) (A) (A) (A) (A) (A) (A) (A) (A) (A)
                 (A) (A) (A) (A)
       Virtual   (A) (A) (A) (A) (A) (A) (A) (A) (A) (A) (A) (A)
                 (A) (A) (A) (A) (A) (A) (A) (A) (A) (A) (A) (A)
                 (A) (A) (A) (A) (A) (A) (A) (A) (A) (A) (A) (A)
                 (A) (A) (A) (A) (A) (A) (A) (A) (A) (A) (A) (A)
                 (A) (A) (A) (A) (A) (A) (A) (A) (A) (A) (A) (A)
                 (A) (A) (A) (A) (A) (A) (A) (A) (A) (A) (A) (A)
                 (A) (A) (A) (A) (A) (A) (A) (A) (A) (A) (A) (A)
                 (A) (A) (A) (A) (A) (A) (A) (A) (A) (A) (A) (A)
                 (A) (A) (A) (A) (A) (A) (A) (A) (A) (A) (A) (A)
                 (A) (A) (A) (A) (A) (A) (A) (A) (A) (A) (A) (A)
                 (A) (A) (A) (A) (A) (A) (A) (A) (A) (A) (A) (A)
                 (A) (A) (A) (A) (A) (A) (A) (A) (A) (A) (A) (A)
                 (A) (A) (A) (A) (A) (A) (A) (A) (A) (A) (A) (A)
                 (A) (A) (A) (A) (A) (A) (A) (A) (A) (A) (A) (A)
                 (A) (A) (A) (A) (A) (A) (A) (A) (A) (A) (A) (A)
                 (A) (A) (A) (A) (A) (A) (A) (A) (A) (A) (A) (A)
                 (A) (A) (A) (A) (A) (A) (A) (A) (A) (A) (A) (A)
                 (A) (A) (A) (A) (A) (A) (A) (A) (A) (A) (A) (A)
                 (A) (A) (A) (A) (A) (A) (A) (A) (A) (A) (A) (A)
                 (A) (A) (A) (A) (A) (A) (A) (A) (A) (A) (A) (A)
                 (A) (A) (A) (A) (A) (A) (A) (A) (A) (A) (A) (A)
                 (A) (A) (A) (A) (A) (A) (A) (A) (A) (A) (A) (A)
                 (A) (A) (A) (A) (A) (A) (A) (A) (A) (A) (A) (A)
                 (A) (A) (A) (A) (A) (A) (A) (A) (A) (A) (A) (A)
                 (A) (A) (A) (A) (A) (A) (A) (A) (A) (A) (A) (A)
                 (A) (A) (A) (A) (A) (A) (A) (A) (A) (A) (A) (A)
                 (A) (A) (A) (A) (A) (A) (A) (A) (A) (A) (A) (A)
                 (A) (A) (A) (A) (A) (A) (A) (A) (A) (A) (A) (A)
                 (A) (A) (A) (A) (A) (A) (A) (A) (A) (A) (A) (A)
                 (A) (A) (A) (A) (A) (A) (A) (A) (A) (A) (A) (A)
                 (A) (A) (A) (A) (A) (A) (A) (A) (A) (A) (A) (A)
                 (A) (A) (A) (A) (A) (A) (A) (A) (A) (A) (A) (A)
                 (A) (A) (A) (A) (A) (A) (A) (A) (A) (A) (A) (A)
                 (A) (A) (A) (A) (A) (A) (A) (A) (A) (A) (A) (A)
                 (A) (A) (A) (A) (A) (A) (A) (A) (A) (A) (A) (A)
                 (A) (A) (A) (A) (A) (A) (A) (A) (A) (A) (A) (A)
                 (A) (A) (A) (A) (A) (A) (A) (A) (A) (A) (A) (A)
                 (A) (A) (A) (A) (A) (A) (A) (A) (A) (A) (A) (A)
                 (A) (A) (A) (A) (A) (A) (A) (A) (A) (A) (A) (A)
                 (A) (A) (A) (A) (A) (A) (A) (A) (A) (A) (A) (A)
                 (A) (A) (A) (A) (A) (A) (A) (A) (A) (A) (A) (A)
                 (A) (A) (A) (A) (A) (A) (A) (A) (A) (A) (A) (A)
                 (A) (A) (A) (A) (A) (A) (A)
 The electronic state is 1-A.
 Alpha  occ. eigenvalues --  -19.39081 -19.38287 -19.38124 -19.35814 -14.66895
 Alpha  occ. eigenvalues --  -14.58096 -10.50598 -10.50122 -10.47503 -10.46994
 Alpha  occ. eigenvalues --  -10.46533 -10.46252 -10.43321 -10.43312 -10.41353
 Alpha  occ. eigenvalues --  -10.40440  -1.25366  -1.23438  -1.22737  -1.22389
 Alpha  occ. eigenvalues --   -1.19706  -1.17143  -1.07937  -1.04292  -1.00123
 Alpha  occ. eigenvalues --   -0.95736  -0.90196  -0.89271  -0.88330  -0.82217
 Alpha  occ. eigenvalues --   -0.79621  -0.79328  -0.74586  -0.74416  -0.73866
 Alpha  occ. eigenvalues --   -0.73778  -0.72892  -0.72158  -0.70723  -0.69318
 Alpha  occ. eigenvalues --   -0.68340  -0.67479  -0.65395  -0.64215  -0.63554
 Alpha  occ. eigenvalues --   -0.62475  -0.61580  -0.61341  -0.59134  -0.58349
 Alpha  occ. eigenvalues --   -0.58036  -0.56881  -0.56447  -0.55542  -0.55226
 Alpha  occ. eigenvalues --   -0.53640  -0.52992  -0.52141  -0.51982  -0.51868
 Alpha  occ. eigenvalues --   -0.51581  -0.49747  -0.48956  -0.44690
 Alpha virt. eigenvalues --   -0.13474  -0.10664  -0.06065  -0.05241  -0.04646
 Alpha virt. eigenvalues --   -0.04421  -0.03593  -0.03171  -0.02841  -0.02702
 Alpha virt. eigenvalues --   -0.01764  -0.01338  -0.01008  -0.00800  -0.00485
 Alpha virt. eigenvalues --   -0.00261   0.00685   0.00960   0.01268   0.01653
 Alpha virt. eigenvalues --    0.01827   0.02349   0.02603   0.02789   0.02966
 Alpha virt. eigenvalues --    0.03275   0.03639   0.03912   0.04080   0.04921
 Alpha virt. eigenvalues --    0.05081   0.05412   0.05510   0.05624   0.05895
 Alpha virt. eigenvalues --    0.06452   0.06704   0.06914   0.07112   0.07512
 Alpha virt. eigenvalues --    0.07627   0.07766   0.08009   0.08389   0.08745
 Alpha virt. eigenvalues --    0.09145   0.09224   0.09780   0.10440   0.10503
 Alpha virt. eigenvalues --    0.10998   0.11078   0.11425   0.11807   0.11835
 Alpha virt. eigenvalues --    0.12151   0.12370   0.13072   0.13326   0.13684
 Alpha virt. eigenvalues --    0.13778   0.13991   0.14419   0.14744   0.14958
 Alpha virt. eigenvalues --    0.15068   0.15393   0.15695   0.16026   0.16135
 Alpha virt. eigenvalues --    0.16576   0.16757   0.16949   0.17354   0.17508
 Alpha virt. eigenvalues --    0.17979   0.18195   0.18351   0.18460   0.19110
 Alpha virt. eigenvalues --    0.19161   0.19392   0.19864   0.20086   0.20252
 Alpha virt. eigenvalues --    0.20697   0.20947   0.21377   0.22119   0.22322
 Alpha virt. eigenvalues --    0.22643   0.23036   0.23131   0.23584   0.23896
 Alpha virt. eigenvalues --    0.24443   0.24543   0.25041   0.25202   0.25700
 Alpha virt. eigenvalues --    0.25896   0.26289   0.26519   0.26872   0.27061
 Alpha virt. eigenvalues --    0.27416   0.27517   0.28014   0.28574   0.28642
 Alpha virt. eigenvalues --    0.29433   0.29670   0.29977   0.30725   0.31189
 Alpha virt. eigenvalues --    0.31422   0.31758   0.32009   0.32276   0.32918
 Alpha virt. eigenvalues --    0.33118   0.33263   0.33874   0.34119   0.34819
 Alpha virt. eigenvalues --    0.35090   0.35655   0.36141   0.36607   0.36717
 Alpha virt. eigenvalues --    0.37038   0.37480   0.37633   0.37965   0.38805
 Alpha virt. eigenvalues --    0.38964   0.39781   0.40123   0.40698   0.40909
 Alpha virt. eigenvalues --    0.41283   0.41715   0.42037   0.42472   0.43038
 Alpha virt. eigenvalues --    0.43711   0.43905   0.44118   0.44534   0.44772
 Alpha virt. eigenvalues --    0.45196   0.45643   0.45858   0.46228   0.46490
 Alpha virt. eigenvalues --    0.46824   0.47118   0.47424   0.47754   0.48470
 Alpha virt. eigenvalues --    0.48656   0.49317   0.49861   0.50188   0.50919
 Alpha virt. eigenvalues --    0.51085   0.51238   0.51280   0.51779   0.52309
 Alpha virt. eigenvalues --    0.52650   0.52793   0.53368   0.53515   0.53616
 Alpha virt. eigenvalues --    0.54335   0.54620   0.55163   0.55271   0.55638
 Alpha virt. eigenvalues --    0.55903   0.56665   0.56987   0.57540   0.57799
 Alpha virt. eigenvalues --    0.58251   0.58879   0.59305   0.59841   0.60063
 Alpha virt. eigenvalues --    0.60665   0.60934   0.61650   0.61791   0.62136
 Alpha virt. eigenvalues --    0.62686   0.63363   0.63654   0.64185   0.64460
 Alpha virt. eigenvalues --    0.65079   0.65593   0.66478   0.66696   0.66913
 Alpha virt. eigenvalues --    0.67232   0.67762   0.68104   0.68684   0.69374
 Alpha virt. eigenvalues --    0.69567   0.69857   0.70295   0.70753   0.71328
 Alpha virt. eigenvalues --    0.71886   0.72035   0.72840   0.73344   0.73618
 Alpha virt. eigenvalues --    0.74127   0.74156   0.74660   0.75347   0.75765
 Alpha virt. eigenvalues --    0.75931   0.76450   0.76867   0.77701   0.77998
 Alpha virt. eigenvalues --    0.78907   0.79428   0.79789   0.80198   0.80940
 Alpha virt. eigenvalues --    0.81904   0.82313   0.83214   0.83423   0.84008
 Alpha virt. eigenvalues --    0.84295   0.84647   0.85387   0.85872   0.86679
 Alpha virt. eigenvalues --    0.87664   0.88293   0.88587   0.89802   0.90037
 Alpha virt. eigenvalues --    0.90595   0.90865   0.92003   0.93104   0.93793
 Alpha virt. eigenvalues --    0.94200   0.94861   0.95196   0.95866   0.96853
 Alpha virt. eigenvalues --    0.97197   0.98340   1.00150   1.00876   1.01324
 Alpha virt. eigenvalues --    1.02124   1.03026   1.03829   1.04572   1.04746
 Alpha virt. eigenvalues --    1.05022   1.06837   1.07083   1.08459   1.08847
 Alpha virt. eigenvalues --    1.09718   1.10545   1.10729   1.11899   1.12021
 Alpha virt. eigenvalues --    1.12525   1.12810   1.13937   1.14500   1.16839
 Alpha virt. eigenvalues --    1.17430   1.17842   1.18232   1.19365   1.19836
 Alpha virt. eigenvalues --    1.20432   1.21680   1.21783   1.22486   1.23265
 Alpha virt. eigenvalues --    1.25001   1.25578   1.26353   1.27977   1.28364
 Alpha virt. eigenvalues --    1.29607   1.29963   1.30694   1.31122   1.32600
 Alpha virt. eigenvalues --    1.33206   1.34215   1.34883   1.36104   1.36577
 Alpha virt. eigenvalues --    1.37239   1.38106   1.38693   1.40210   1.40898
 Alpha virt. eigenvalues --    1.42333   1.43567   1.44260   1.45439   1.46412
 Alpha virt. eigenvalues --    1.46680   1.47612   1.48024   1.48964   1.50388
 Alpha virt. eigenvalues --    1.50852   1.51364   1.53170   1.54210   1.54956
 Alpha virt. eigenvalues --    1.55380   1.55783   1.57514   1.58695   1.60200
 Alpha virt. eigenvalues --    1.60830   1.61679   1.62038   1.62316   1.63685
 Alpha virt. eigenvalues --    1.64177   1.64692   1.65401   1.65969   1.67479
 Alpha virt. eigenvalues --    1.67613   1.67983   1.69591   1.70802   1.71123
 Alpha virt. eigenvalues --    1.71814   1.72197   1.72635   1.74388   1.74781
 Alpha virt. eigenvalues --    1.75589   1.76505   1.77244   1.77999   1.79055
 Alpha virt. eigenvalues --    1.80005   1.80576   1.81804   1.82101   1.82380
 Alpha virt. eigenvalues --    1.83404   1.84014   1.84712   1.85739   1.86365
 Alpha virt. eigenvalues --    1.86650   1.87766   1.87970   1.89120   1.89344
 Alpha virt. eigenvalues --    1.90381   1.91605   1.92324   1.93118   1.93493
 Alpha virt. eigenvalues --    1.94420   1.95117   1.96045   1.97586   1.98477
 Alpha virt. eigenvalues --    1.99565   1.99757   2.00020   2.00682   2.02138
 Alpha virt. eigenvalues --    2.03748   2.04274   2.04758   2.05105   2.05250
 Alpha virt. eigenvalues --    2.07944   2.09088   2.09605   2.10815   2.11151
 Alpha virt. eigenvalues --    2.11799   2.12369   2.12665   2.14060   2.14590
 Alpha virt. eigenvalues --    2.15496   2.16266   2.16839   2.18370   2.18718
 Alpha virt. eigenvalues --    2.20992   2.21243   2.22581   2.23651   2.24348
 Alpha virt. eigenvalues --    2.26087   2.26137   2.27345   2.28175   2.29300
 Alpha virt. eigenvalues --    2.29596   2.30063   2.31700   2.32512   2.34166
 Alpha virt. eigenvalues --    2.35768   2.36931   2.37966   2.38255   2.39498
 Alpha virt. eigenvalues --    2.40735   2.42552   2.43108   2.44018   2.45293
 Alpha virt. eigenvalues --    2.45804   2.47343   2.48891   2.50925   2.51633
 Alpha virt. eigenvalues --    2.52815   2.53636   2.54858   2.55691   2.56050
 Alpha virt. eigenvalues --    2.57662   2.59150   2.59979   2.60971   2.62567
 Alpha virt. eigenvalues --    2.63012   2.64251   2.64737   2.67946   2.69082
 Alpha virt. eigenvalues --    2.69732   2.70609   2.71411   2.71736   2.73184
 Alpha virt. eigenvalues --    2.75516   2.75908   2.77017   2.77713   2.78665
 Alpha virt. eigenvalues --    2.81732   2.82992   2.83982   2.84562   2.86572
 Alpha virt. eigenvalues --    2.88933   2.89176   2.91026   2.92075   2.95047
 Alpha virt. eigenvalues --    2.95561   2.99181   3.03597   3.05880   3.06582
 Alpha virt. eigenvalues --    3.11352   3.16667   3.20321   3.23832   3.28230
 Alpha virt. eigenvalues --    3.30290   3.36265   3.38445   3.40426   3.42929
 Alpha virt. eigenvalues --    3.44665   3.44879   3.46023   3.47678   3.48169
 Alpha virt. eigenvalues --    3.52766   3.56158   3.59375   3.62844   3.67873
 Alpha virt. eigenvalues --    3.69535   3.72877   3.83311   3.90500   3.92247
 Alpha virt. eigenvalues --    3.98072   4.03115   4.08714   4.13436   4.36778
 Alpha virt. eigenvalues --    4.94299
          Condensed to atoms (all electrons):
               1          2          3          4          5          6
     1  C   23.965041  -9.642456  -2.887488  -0.283581   1.607376  -4.481567
     2  C   -9.642456  24.795141  -3.388343  -0.370778  -0.511830   0.344289
     3  C   -2.887488  -3.388343  16.535659  -1.088325  -1.841934   0.533833
     4  N   -0.283581  -0.370778  -1.088325   7.787936   0.256215   0.043154
     5  C    1.607376  -0.511830  -1.841934   0.256215   9.941892  -2.362976
     6  C   -4.481567   0.344289   0.533833   0.043154  -2.362976  11.636440
     7  C   -0.671273 -10.090869  -1.921381   1.007512  -0.682577   0.241590
     8  N   -0.307264   2.124296   0.679495  -0.127544   0.119163  -0.218075
     9  C   -0.002967  -0.395100  -0.202644   0.050873  -0.008682  -0.056702
    10  C    0.010325   0.376596  -0.039368   0.015119   0.013356  -0.017197
    11  C   -0.394017   0.214055  -0.865060   0.034243  -0.100330   0.083249
    12  O    0.030056  -0.081181  -0.015908  -0.131240   0.037707  -0.018330
    13  O   -0.008286   0.020950  -0.036805  -0.008570   0.015230  -0.005355
    14  O   -0.012822  -0.031090  -0.075177   0.003335  -0.015539   0.011542
    15  H    0.020532  -0.160979  -0.022446   0.002677   0.001035  -0.002713
    16  H    0.003593   0.052232   0.027994  -0.002950   0.002744  -0.003875
    17  H    0.003062  -0.129120  -0.027966   0.005131  -0.001686   0.000557
    18  H   -0.081797   0.408012   0.240687  -0.011440  -0.000549   0.000905
    19  H    0.079118   0.033714  -0.105845   0.008602   0.012668  -0.016691
    20  H    0.015676   0.113000   0.019266   0.000265  -0.001892   0.002193
    21  H   -0.003687   1.161903  -0.272038  -0.000296   0.039840  -0.015730
    22  H   -0.189316  -0.945449  -0.958209   0.074972  -0.200350   0.095896
    23  H    0.244596  -0.101003   0.209678  -0.107567  -0.504790   0.057750
    24  H    0.614818  -0.030217  -0.176115  -0.008277   0.353776  -1.086045
    25  H   -2.627883   1.274446   0.332614  -0.089602  -0.223345   0.761052
    26  C   -0.219715   0.708151   0.063059  -0.062745  -0.002115   0.029028
    27  H   -0.022868  -0.438893   0.635402  -0.006686  -0.611929  -0.008784
    28  H    0.028396  -0.159870  -0.038988   0.007415  -0.014421   0.012923
    29  H   -0.000849   0.003420   0.017890  -0.000456   0.001892  -0.000761
    30  H    0.006863   0.000117  -0.034742   0.006580  -0.004152   0.000630
    31  H   -0.001076   0.000030   0.008585  -0.007760  -0.010076   0.004095
    32  H   -0.005271   0.005980   0.000548   0.005858  -0.000404   0.000818
    33  H   -0.004887  -0.001189   0.004509   0.001378   0.002159   0.000497
    34  O    0.000466   0.001056  -0.001151   0.000256   0.000060  -0.000130
    35  H    0.000087  -0.000026  -0.000434   0.000116   0.000020  -0.000043
    36  H    0.000122   0.000018  -0.000044   0.000011   0.000013  -0.000012
    37  H   -0.003256  -0.007597  -0.067631  -0.000030  -0.002028   0.006492
    38  H   -0.045593   0.051572   0.089811  -0.002540  -0.041536   0.065621
    39  H    0.010840   0.158059   0.027196  -0.007026   0.017339  -0.020399
               7          8          9         10         11         12
     1  C   -0.671273  -0.307264  -0.002967   0.010325  -0.394017   0.030056
     2  C  -10.090869   2.124296  -0.395100   0.376596   0.214055  -0.081181
     3  C   -1.921381   0.679495  -0.202644  -0.039368  -0.865060  -0.015908
     4  N    1.007512  -0.127544   0.050873   0.015119   0.034243  -0.131240
     5  C   -0.682577   0.119163  -0.008682   0.013356  -0.100330   0.037707
     6  C    0.241590  -0.218075  -0.056702  -0.017197   0.083249  -0.018330
     7  C   27.867151  -6.295628  -0.325711   0.002564  -1.238901   0.012475
     8  N   -6.295628  14.556130  -0.170255  -0.365934  -0.951993   0.001189
     9  C   -0.325711  -0.170255   5.857162  -0.017908   0.748718   0.000343
    10  C    0.002564  -0.365934  -0.017908   6.248097  -0.963675  -0.001091
    11  C   -1.238901  -0.951993   0.748718  -0.963675   8.382696  -0.002626
    12  O    0.012475   0.001189   0.000343  -0.001091  -0.002626   8.006095
    13  O    0.005547   0.000734   0.001526   0.000893  -0.003893  -0.066359
    14  O    0.059472  -0.052004   0.033292  -0.013212   0.032249   0.003663
    15  H    0.575110  -0.973872  -0.173220   0.161490   0.070849  -0.000029
    16  H   -0.155728  -0.091770   0.155817  -0.217705   0.227579  -0.000052
    17  H    0.273069   0.093784  -0.017424  -0.403098   0.258799  -0.000285
    18  H   -0.013115   0.428559  -0.205513   0.188315  -1.078498   0.000054
    19  H   -0.216066  -0.109563   0.029371   0.314286  -0.140688   0.000860
    20  H    0.073763  -0.221061  -0.304206   0.020265   0.020925   0.000036
    21  H   -2.849265  -0.304282   0.011301  -0.071550   0.741396   0.000270
    22  H    0.186455  -0.128498   0.025840  -0.007562   0.058412   0.007821
    23  H   -0.027725   0.007284  -0.000454   0.000613   0.004248   0.015151
    24  H    0.090755  -0.001748   0.000381   0.000127  -0.005068  -0.000409
    25  H   -0.315593   0.040933  -0.012296  -0.007317  -0.003735   0.000218
    26  C   -1.303260   1.173033  -0.245490  -0.028490  -0.167149   0.000376
    27  H   -0.004980  -0.006392  -0.006230  -0.001527  -0.031905   0.006058
    28  H    0.465069  -0.160328  -0.125167   0.022860  -0.038253   0.001066
    29  H   -0.023209  -0.025626   0.025446  -0.008586   0.018752   0.001003
    30  H    0.016523  -0.003591  -0.000136  -0.000444  -0.000397   0.298829
    31  H   -0.002844   0.000819   0.000218  -0.000018   0.001075   0.375833
    32  H   -0.010651   0.008802  -0.000539  -0.000598  -0.001256   0.005345
    33  H    0.044554  -0.046859   0.004352   0.008216   0.007663  -0.011342
    34  O    0.000066  -0.000000   0.000030   0.000008   0.000020  -0.000853
    35  H    0.000291  -0.000110   0.000015   0.000007  -0.000005  -0.000057
    36  H   -0.000019  -0.000007  -0.000003  -0.000001   0.000025   0.000034
    37  H    0.201586  -0.218490  -0.022405   0.067407  -0.062288  -0.000082
    38  H   -0.118760   0.130387  -0.074429  -0.039830   0.080706   0.000563
    39  H   -0.304756  -0.427208   0.128488  -0.011620   0.044431  -0.000035
              13         14         15         16         17         18
     1  C   -0.008286  -0.012822   0.020532   0.003593   0.003062  -0.081797
     2  C    0.020950  -0.031090  -0.160979   0.052232  -0.129120   0.408012
     3  C   -0.036805  -0.075177  -0.022446   0.027994  -0.027966   0.240687
     4  N   -0.008570   0.003335   0.002677  -0.002950   0.005131  -0.011440
     5  C    0.015230  -0.015539   0.001035   0.002744  -0.001686  -0.000549
     6  C   -0.005355   0.011542  -0.002713  -0.003875   0.000557   0.000905
     7  C    0.005547   0.059472   0.575110  -0.155728   0.273069  -0.013115
     8  N    0.000734  -0.052004  -0.973872  -0.091770   0.093784   0.428559
     9  C    0.001526   0.033292  -0.173220   0.155817  -0.017424  -0.205513
    10  C    0.000893  -0.013212   0.161490  -0.217705  -0.403098   0.188315
    11  C   -0.003893   0.032249   0.070849   0.227579   0.258799  -1.078498
    12  O   -0.066359   0.003663  -0.000029  -0.000052  -0.000285   0.000054
    13  O    7.913027  -0.040794  -0.000274  -0.000037   0.000416  -0.000050
    14  O   -0.040794   7.944469   0.023767  -0.003971   0.008473   0.001324
    15  H   -0.000274   0.023767   2.829371   0.127987  -0.318588  -0.041129
    16  H   -0.000037  -0.003971   0.127987   2.095474  -0.610714  -0.312007
    17  H    0.000416   0.008473  -0.318588  -0.610714   2.214680   0.175716
    18  H   -0.000050   0.001324  -0.041129  -0.312007   0.175716   2.593356
    19  H   -0.001569  -0.020358   0.055621   0.201098  -0.429112  -0.655788
    20  H   -0.000133   0.003205  -0.589098  -0.266979   0.196295   0.061174
    21  H    0.000185  -0.002859   0.088102   0.064270  -0.056214  -0.337547
    22  H    0.026908   0.041418  -0.026775  -0.006487   0.025680   0.069249
    23  H    0.000628  -0.000471   0.000041   0.000115  -0.000092   0.000697
    24  H   -0.000012   0.000292   0.000051  -0.000140   0.000087  -0.001786
    25  H   -0.000322  -0.001097  -0.002517   0.003220  -0.001607   0.011582
    26  C    0.003162  -0.003253  -0.166136  -0.020728   0.015730   0.082346
    27  H   -0.012138  -0.003409  -0.000385  -0.000253   0.000580   0.000759
    28  H    0.000194   0.134147   0.053745  -0.000692   0.007631  -0.017168
    29  H    0.008154   0.365722   0.001447   0.000681   0.000906   0.001225
    30  H    0.047337   0.000464   0.000473   0.000046  -0.000331  -0.000263
    31  H   -0.006599  -0.000092  -0.000016   0.000005  -0.000042  -0.000041
    32  H    0.307108  -0.000706  -0.001326  -0.000037   0.000277   0.000161
    33  H    0.320540   0.037509   0.005925   0.000095  -0.000653  -0.001336
    34  O   -0.057196   0.000328   0.000163   0.000002  -0.000030   0.000004
    35  H    0.003551  -0.000004   0.000035   0.000001  -0.000006  -0.000000
    36  H    0.004786   0.000155  -0.000004  -0.000000  -0.000005   0.000001
    37  H    0.002240   0.001441  -0.009228  -0.004674   0.011019   0.002159
    38  H   -0.005173   0.010590   0.005355  -0.000061  -0.005501  -0.001092
    39  H   -0.000115  -0.005176   0.025720   0.006514  -0.005760   0.008406
              19         20         21         22         23         24
     1  C    0.079118   0.015676  -0.003687  -0.189316   0.244596   0.614818
     2  C    0.033714   0.113000   1.161903  -0.945449  -0.101003  -0.030217
     3  C   -0.105845   0.019266  -0.272038  -0.958209   0.209678  -0.176115
     4  N    0.008602   0.000265  -0.000296   0.074972  -0.107567  -0.008277
     5  C    0.012668  -0.001892   0.039840  -0.200350  -0.504790   0.353776
     6  C   -0.016691   0.002193  -0.015730   0.095896   0.057750  -1.086045
     7  C   -0.216066   0.073763  -2.849265   0.186455  -0.027725   0.090755
     8  N   -0.109563  -0.221061  -0.304282  -0.128498   0.007284  -0.001748
     9  C    0.029371  -0.304206   0.011301   0.025840  -0.000454   0.000381
    10  C    0.314286   0.020265  -0.071550  -0.007562   0.000613   0.000127
    11  C   -0.140688   0.020925   0.741396   0.058412   0.004248  -0.005068
    12  O    0.000860   0.000036   0.000270   0.007821   0.015151  -0.000409
    13  O   -0.001569  -0.000133   0.000185   0.026908   0.000628  -0.000012
    14  O   -0.020358   0.003205  -0.002859   0.041418  -0.000471   0.000292
    15  H    0.055621  -0.589098   0.088102  -0.026775   0.000041   0.000051
    16  H    0.201098  -0.266979   0.064270  -0.006487   0.000115  -0.000140
    17  H   -0.429112   0.196295  -0.056214   0.025680  -0.000092   0.000087
    18  H   -0.655788   0.061174  -0.337547   0.069249   0.000697  -0.001786
    19  H    2.274276  -0.060208   0.218622  -0.169699  -0.000317   0.000010
    20  H   -0.060208   2.506997  -0.094556   0.012430  -0.000056  -0.000082
    21  H    0.218622  -0.094556   3.655719  -0.044044   0.001927   0.000289
    22  H   -0.169699   0.012430  -0.044044   4.376203   0.013291  -0.006699
    23  H   -0.000317  -0.000056   0.001927   0.013291   2.098645  -0.104665
    24  H    0.000010  -0.000082   0.000289  -0.006699  -0.104665   2.043174
    25  H    0.002263   0.000195  -0.173486  -0.010442  -0.009771  -0.125099
    26  C   -0.038424  -0.003859  -0.035453   0.061150   0.002780  -0.005242
    27  H   -0.003940   0.000435  -0.003212  -0.082389  -0.183157   0.009826
    28  H    0.014779   0.010866   0.005937  -0.058200   0.000317   0.000127
    29  H    0.006562   0.000399   0.000496  -0.002397  -0.000007  -0.000048
    30  H    0.000890  -0.000139   0.000668   0.003053  -0.000471  -0.000247
    31  H    0.000798   0.000005  -0.000033  -0.003005   0.003753  -0.000160
    32  H   -0.000829  -0.000025  -0.000736   0.002606   0.000517  -0.000001
    33  H    0.003152   0.000388   0.003048  -0.035099  -0.001772   0.000541
    34  O    0.000057  -0.000012  -0.000025  -0.000765   0.000017   0.000001
    35  H    0.000009  -0.000003   0.000013  -0.000411  -0.000015   0.000001
    36  H    0.000012   0.000003  -0.000003   0.000181  -0.000009  -0.000000
    37  H   -0.005913   0.006614   0.020052   0.007567   0.000245  -0.000539
    38  H    0.007234   0.006436   0.011408  -0.004073  -0.002204  -0.000227
    39  H    0.003915   0.040420   0.087780   0.002180   0.000594  -0.000542
              25         26         27         28         29         30
     1  C   -2.627883  -0.219715  -0.022868   0.028396  -0.000849   0.006863
     2  C    1.274446   0.708151  -0.438893  -0.159870   0.003420   0.000117
     3  C    0.332614   0.063059   0.635402  -0.038988   0.017890  -0.034742
     4  N   -0.089602  -0.062745  -0.006686   0.007415  -0.000456   0.006580
     5  C   -0.223345  -0.002115  -0.611929  -0.014421   0.001892  -0.004152
     6  C    0.761052   0.029028  -0.008784   0.012923  -0.000761   0.000630
     7  C   -0.315593  -1.303260  -0.004980   0.465069  -0.023209   0.016523
     8  N    0.040933   1.173033  -0.006392  -0.160328  -0.025626  -0.003591
     9  C   -0.012296  -0.245490  -0.006230  -0.125167   0.025446  -0.000136
    10  C   -0.007317  -0.028490  -0.001527   0.022860  -0.008586  -0.000444
    11  C   -0.003735  -0.167149  -0.031905  -0.038253   0.018752  -0.000397
    12  O    0.000218   0.000376   0.006058   0.001066   0.001003   0.298829
    13  O   -0.000322   0.003162  -0.012138   0.000194   0.008154   0.047337
    14  O   -0.001097  -0.003253  -0.003409   0.134147   0.365722   0.000464
    15  H   -0.002517  -0.166136  -0.000385   0.053745   0.001447   0.000473
    16  H    0.003220  -0.020728  -0.000253  -0.000692   0.000681   0.000046
    17  H   -0.001607   0.015730   0.000580   0.007631   0.000906  -0.000331
    18  H    0.011582   0.082346   0.000759  -0.017168   0.001225  -0.000263
    19  H    0.002263  -0.038424  -0.003940   0.014779   0.006562   0.000890
    20  H    0.000195  -0.003859   0.000435   0.010866   0.000399  -0.000139
    21  H   -0.173486  -0.035453  -0.003212   0.005937   0.000496   0.000668
    22  H   -0.010442   0.061150  -0.082389  -0.058200  -0.002397   0.003053
    23  H   -0.009771   0.002780  -0.183157   0.000317  -0.000007  -0.000471
    24  H   -0.125099  -0.005242   0.009826   0.000127  -0.000048  -0.000247
    25  H    3.040973   0.029910   0.008795  -0.003910   0.000268  -0.000802
    26  C    0.029910   4.898274  -0.001321  -0.124264   0.015020  -0.001546
    27  H    0.008795  -0.001321   1.668124   0.002343   0.000115  -0.005007
    28  H   -0.003910  -0.124264   0.002343   0.678496  -0.193839   0.003495
    29  H    0.000268   0.015020   0.000115  -0.193839   0.634137  -0.000133
    30  H   -0.000802  -0.001546  -0.005007   0.003495  -0.000133   0.516246
    31  H    0.000115   0.000113   0.006111  -0.000117  -0.000016  -0.098390
    32  H    0.000324   0.002451   0.000193  -0.000042  -0.000841  -0.007839
    33  H   -0.001292  -0.022827   0.001065  -0.003680  -0.000555  -0.009435
    34  O    0.000019   0.000482   0.000971  -0.002183   0.000444   0.004052
    35  H   -0.000003  -0.000156   0.000136  -0.000187   0.000002  -0.000608
    36  H    0.000003   0.000008   0.000077   0.000224  -0.000033  -0.001156
    37  H    0.000288   0.203530  -0.000944   0.030347   0.000420   0.000078
    38  H    0.000871   0.114671   0.000622   0.005286  -0.001988   0.000301
    39  H    0.007733   0.250711   0.000429  -0.036769   0.005191  -0.000213
              31         32         33         34         35         36
     1  C   -0.001076  -0.005271  -0.004887   0.000466   0.000087   0.000122
     2  C    0.000030   0.005980  -0.001189   0.001056  -0.000026   0.000018
     3  C    0.008585   0.000548   0.004509  -0.001151  -0.000434  -0.000044
     4  N   -0.007760   0.005858   0.001378   0.000256   0.000116   0.000011
     5  C   -0.010076  -0.000404   0.002159   0.000060   0.000020   0.000013
     6  C    0.004095   0.000818   0.000497  -0.000130  -0.000043  -0.000012
     7  C   -0.002844  -0.010651   0.044554   0.000066   0.000291  -0.000019
     8  N    0.000819   0.008802  -0.046859  -0.000000  -0.000110  -0.000007
     9  C    0.000218  -0.000539   0.004352   0.000030   0.000015  -0.000003
    10  C   -0.000018  -0.000598   0.008216   0.000008   0.000007  -0.000001
    11  C    0.001075  -0.001256   0.007663   0.000020  -0.000005   0.000025
    12  O    0.375833   0.005345  -0.011342  -0.000853  -0.000057   0.000034
    13  O   -0.006599   0.307108   0.320540  -0.057196   0.003551   0.004786
    14  O   -0.000092  -0.000706   0.037509   0.000328  -0.000004   0.000155
    15  H   -0.000016  -0.001326   0.005925   0.000163   0.000035  -0.000004
    16  H    0.000005  -0.000037   0.000095   0.000002   0.000001  -0.000000
    17  H   -0.000042   0.000277  -0.000653  -0.000030  -0.000006  -0.000005
    18  H   -0.000041   0.000161  -0.001336   0.000004  -0.000000   0.000001
    19  H    0.000798  -0.000829   0.003152   0.000057   0.000009   0.000012
    20  H    0.000005  -0.000025   0.000388  -0.000012  -0.000003   0.000003
    21  H   -0.000033  -0.000736   0.003048  -0.000025   0.000013  -0.000003
    22  H   -0.003005   0.002606  -0.035099  -0.000765  -0.000411   0.000181
    23  H    0.003753   0.000517  -0.001772   0.000017  -0.000015  -0.000009
    24  H   -0.000160  -0.000001   0.000541   0.000001   0.000001  -0.000000
    25  H    0.000115   0.000324  -0.001292   0.000019  -0.000003   0.000003
    26  C    0.000113   0.002451  -0.022827   0.000482  -0.000156   0.000008
    27  H    0.006111   0.000193   0.001065   0.000971   0.000136   0.000077
    28  H   -0.000117  -0.000042  -0.003680  -0.002183  -0.000187   0.000224
    29  H   -0.000016  -0.000841  -0.000555   0.000444   0.000002  -0.000033
    30  H   -0.098390  -0.007839  -0.009435   0.004052  -0.000608  -0.001156
    31  H    0.568751  -0.001518   0.003194  -0.000595   0.000010   0.000073
    32  H   -0.001518   0.640068  -0.187245  -0.015671  -0.002747   0.001049
    33  H    0.003194  -0.187245   0.642600   0.007165   0.001696  -0.001203
    34  O   -0.000595  -0.015671   0.007165   7.657691   0.352315   0.350911
    35  H    0.000010  -0.002747   0.001696   0.352315   0.581667  -0.076598
    36  H    0.000073   0.001049  -0.001203   0.350911  -0.076598   0.578131
    37  H    0.000028   0.000222   0.000374  -0.000153  -0.000081   0.000037
    38  H   -0.000108  -0.001499   0.004918   0.000653  -0.000050   0.000062
    39  H   -0.000006   0.000550  -0.002539   0.000035   0.000003  -0.000007
              37         38         39
     1  C   -0.003256  -0.045593   0.010840
     2  C   -0.007597   0.051572   0.158059
     3  C   -0.067631   0.089811   0.027196
     4  N   -0.000030  -0.002540  -0.007026
     5  C   -0.002028  -0.041536   0.017339
     6  C    0.006492   0.065621  -0.020399
     7  C    0.201586  -0.118760  -0.304756
     8  N   -0.218490   0.130387  -0.427208
     9  C   -0.022405  -0.074429   0.128488
    10  C    0.067407  -0.039830  -0.011620
    11  C   -0.062288   0.080706   0.044431
    12  O   -0.000082   0.000563  -0.000035
    13  O    0.002240  -0.005173  -0.000115
    14  O    0.001441   0.010590  -0.005176
    15  H   -0.009228   0.005355   0.025720
    16  H   -0.004674  -0.000061   0.006514
    17  H    0.011019  -0.005501  -0.005760
    18  H    0.002159  -0.001092   0.008406
    19  H   -0.005913   0.007234   0.003915
    20  H    0.006614   0.006436   0.040420
    21  H    0.020052   0.011408   0.087780
    22  H    0.007567  -0.004073   0.002180
    23  H    0.000245  -0.002204   0.000594
    24  H   -0.000539  -0.000227  -0.000542
    25  H    0.000288   0.000871   0.007733
    26  C    0.203530   0.114671   0.250711
    27  H   -0.000944   0.000622   0.000429
    28  H    0.030347   0.005286  -0.036769
    29  H    0.000420  -0.001988   0.005191
    30  H    0.000078   0.000301  -0.000213
    31  H    0.000028  -0.000108  -0.000006
    32  H    0.000222  -0.001499   0.000550
    33  H    0.000374   0.004918  -0.002539
    34  O   -0.000153   0.000653   0.000035
    35  H   -0.000081  -0.000050   0.000003
    36  H    0.000037   0.000062  -0.000007
    37  H    1.875493  -0.563040  -0.299382
    38  H   -0.563040   1.818670  -0.367111
    39  H   -0.299382  -0.367111   1.830701
 Mulliken charges:
               1
     1  C    1.256953
     2  C    0.638953
     3  C    0.641816
     4  N    0.005763
     5  C    0.720652
     6  C    0.382832
     7  C    1.448762
     8  N   -1.156507
     9  C    1.294308
    10  C    0.766186
    11  C    1.019647
    12  O   -0.475164
    13  O   -0.429439
    14  O   -0.434823
    15  H   -0.560760
    16  H   -0.270604
    17  H   -0.283661
    18  H   -0.515570
    19  H   -0.292907
    20  H   -0.568943
    21  H   -0.848210
    22  H   -1.211447
    23  H   -0.618341
    24  H   -0.560890
    25  H   -0.905704
    26  C    0.798187
    27  H    0.094307
    28  H    0.492414
    29  H    0.149753
    30  H    0.263398
    31  H    0.158900
    32  H    0.256906
    33  H    0.226377
    34  O   -0.298507
    35  H    0.141569
    36  H    0.143166
    37  H   -0.169879
    38  H   -0.130922
    39  H   -0.168572
 Sum of Mulliken charges =   1.00000
 Mulliken charges with hydrogens summed into heavy atoms:
               1
     1  C    0.351249
     2  C    0.638953
     3  C   -0.569630
     4  N    0.100069
     5  C    0.102311
     6  C   -0.178058
     7  C    0.600552
     8  N   -1.156507
     9  C    0.164605
    10  C    0.211922
    11  C    0.211170
    12  O   -0.052865
    13  O    0.053844
    14  O    0.207343
    26  C    0.328813
    34  O   -0.013771
 Electronic spatial extent (au):  <R**2>=           5148.0137
 Charge=              1.0000 electrons
 Dipole moment (field-independent basis, Debye):
    X=             -1.2158    Y=              1.5399    Z=              0.8193  Tot=              2.1262
 Quadrupole moment (field-independent basis, Debye-Ang):
[...]
 -0.00003740,-0.00002561,-0.00000489,0.00000415,0.00004904,0.00002191,0
 .00000079,-0.00007620,0.00000668,0.00000237,0.00003750,-0.00000441,-0.
 00001013,0.00000036,0.00000635,0.00000733,-0.00001318,-0.00001308,-0.0
 0015514,-0.00013481,0.00005103,0.00160349,-0.00150024,-0.00017256,0.00
 004934,-0.00009335,-0.00002098,0.00000175,-0.00001333,0.00000331,-0.00
 000155,-0.00000382,0.00000058,0.00000013,-0.00000354,0.00000373,0.0000
 0220,-0.00000225,-0.00000116,-0.00000237,0.00000123,-0.00000545,-0.000
 00331,-0.00000270,-0.00000124,0.00000293,-0.00000963,0.00000002,-0.000
 00786,0.00003241,-0.00000103,0.00001483,-0.00001255,-0.00001521,0.0000
 0614,-0.00000456,-0.00000426,0.00000128,0.00000232,-0.00000232,0.00001
 362,0.00007042,0.00000559,0.00010927,-0.00000428,0.00000182,-0.0000525
 0,0.00004666,-0.00001564,-0.00002835,0.00002745,0.00002848,0.00013584,
 0.00023568,-0.00002160,0.00001718,0.00001679,-0.00002992,-0.00237236,0
 .00222516,-0.00107768,0.00013710,-0.00001528,0.00008353,-0.00641601,-0
 .02178385,0.08304946,0.01292159,0.02318910,-0.00000108,-0.00001808,0.0
 0000352,-0.00001580,0.00003379,-0.00002319,0.00004289,0.00001300,0.000
 02985,-0.00011698,0.00001428,-0.00005646,0.00000347,-0.00003561,0.0000
 1384,-0.00000298,0.00000544,-0.00000904,0.00001651,0.00001669,0.000006
 17,-0.00004881,0.00001094,-0.00008489,0.00002157,-0.00000205,-0.000001
 66,0.00000411,-0.00000088,0.00000742,0.00000864,-0.00000734,-0.0000002
 2,-0.00020441,0.00018959,0.00006949,-0.00107249,0.00035398,0.00055306,
 -0.00024604,-0.00000101,-0.00003209,0.00000482,-0.00000005,0.00000835,
 -0.00000277,-0.00000035,-0.00000359,0.00000363,0.00000297,-0.00000747,
 -0.00000112,0.00000081,-0.00000392,-0.00000015,-0.00000465,-0.00000736
 ,-0.00001252,0.00000274,-0.00000595,-0.00001141,0.00000187,-0.00000440
 ,0.00003823,-0.00001810,0.00000229,0.00000543,-0.00000365,0.00000694,-
 0.00000396,0.00000159,0.00000359,-0.00000551,0.00000133,0.00000182,-0.
 00002602,0.00000367,0.00005274,0.00022666,-0.00007157,0.00009737,0.000
 12730,-0.00004846,0.00010766,0.00003764,-0.00000084,-0.00000232,0.0001
 0459,-0.00019172,-0.00016468,0.00002709,-0.00002256,-0.00003500,0.0017
 0863,-0.00028470,-0.00147261,0.00024982,0.00006104,-0.00002197,0.11628
 185,0.09441975,-0.47962300,-0.13163438,-0.09654823,0.50091049,-0.00000
 177,0.00001664,-0.00000586,0.00002234,-0.00001384,0.00001217,-0.000024
 99,0.00000258,-0.00001348,0.00002339,-0.00000519,0.00000456,0.00001024
 ,0.00000789,0.00000595,-0.00001352,-0.00000709,-0.00000571,-0.00001674
 ,0.00003017,0.00000853,0.00006665,-0.00002980,0.00002786,-0.00002550,-
 0.00000531,-0.00000387,-0.00000446,0.00000097,-0.00000201,-0.00000172,
 -0.00000046,-0.00000326,0.00001935,-0.00008439,-0.00002428,0.00023356,
 0.00017500,0.00083650,0.00018519,-0.00010973,0.00003106,-0.00000397,-0
 .00000620,-0.00000261,0.00000545,-0.00000160,0.00000112,-0.00000500,-0
 .00000235,0.00000483,0.00000492,-0.00000274,0.00000081,-0.00000298,0.0
 0000364,0.00000195,0.00000761,-0.00000261,0.00000531,0.00000868,-0.000
 00758,0.00000444,-0.00001192,0.00003062,0.00000025,0.00000089,0.000003
 41,0.00000183,-0.00000024,0.00000117,0.00000104,-0.00000044,0.00000277
 ,0.00000153,-0.00001061,0.00000942,-0.00000803,-0.00002852,0.00001804,
 -0.00000661,-0.00010093,0.00004510,-0.00007444,-0.00010279,0.00001686,
 0.00003121,-0.00008552,0.00011542,0.00006236,0.00002172,0.00004870,0.0
 0002095,-0.00095598,-0.00059001,-0.00201356,-0.00015568,0.00015489,-0.
 00008355,-0.37756400,0.14743048,-0.21601977,0.00807324,-0.00596167,0.0
 1451313,0.37043325,0.00000519,0.00000203,-0.00000111,0.00001390,0.0000
 2304,-0.00000076,0.00002080,0.00003478,-0.00000673,-0.00014060,0.00002
 386,-0.00006462,0.00001988,-0.00004678,0.00002352,-0.00002813,-0.00001
 118,-0.00001174,0.00000663,0.00003305,0.00001979,-0.00001525,-0.000048
 16,0.00000354,0.00001063,0.00003839,-0.00000610,-0.00000893,0.00000326
 ,0.00000266,0.00000740,-0.00000868,-0.00000828,-0.00038854,0.00004243,
 0.00002762,-0.00001675,-0.00031693,-0.00067448,-0.00001150,-0.00015035
 ,0.00005497,0.00000243,-0.00000878,-0.00000095,-0.00000328,-0.00000308
 ,0.00000035,0.00000189,-0.00000203,0.00000458,0.00000087,-0.00000214,-
 0.00000071,-0.00000216,0.00000111,-0.00000569,-0.00000429,-0.00000417,
 -0.00000175,-0.00000097,-0.00000750,-0.00000174,0.00002004,0.00003045,
 -0.00000427,0.00001328,-0.00000850,-0.00000153,0.00000050,-0.00000219,
 -0.00000183,-0.00000088,0.00000177,-0.00000183,0.00001090,0.00002208,-
 0.00000039,0.00028455,-0.00006615,0.00011101,-0.00002234,0.00002425,-0
 .00002422,-0.00008138,0.00005617,0.00001367,0.00031697,0.00001292,-0.0
 0003859,0.00010219,-0.00002490,-0.00008436,0.00057036,-0.00002039,0.00
 181078,0.00017443,0.00012032,-0.00027575,0.13222825,-0.05601791,0.0892
 1828,0.00819170,-0.00225590,0.00212846,-0.14127885,0.05854781,-0.00000
 145,0.00000263,-0.00000104,0.00000044,-0.00000560,-0.00000389,0.000008
 90,0.00001411,-0.00000143,-0.00005692,0.00001507,-0.00004383,0.0000026
 7,-0.00000997,0.00000946,-0.00000673,-0.00000072,-0.00000583,-0.000005
 85,0.00001738,0.00000208,0.00000602,0.00000958,-0.00004361,-0.00000361
 ,-0.00001282,0.00000131,0.00000472,-0.00000362,0.00000595,0.00000619,-
 0.00000136,0.00000472,-0.00020983,-0.00013918,-0.00024894,0.00155278,-
 0.00112556,-0.00253954,-0.00000692,0.00010531,-0.00019376,0.00000182,-
 0.00000243,0.00000625,0.00000156,0.00000034,-0.00000260,-0.00000087,0.
 00000327,-0.00000460,0.00000179,-0.00000017,-0.00000233,-0.00000236,-0
 .00000310,-0.00000189,-0.00000254,0.00000243,-0.00000266,-0.00000135,-
 0.00000057,-0.00000170,-0.00001360,-0.00000675,0.00002836,0.00000105,0
 .00000155,0.00000902,-0.00000278,0.00000159,0.00000246,-0.00000251,0.0
 0000097,0.00000283,-0.00002987,-0.00000121,0.00003757,0.00012350,-0.00
 001818,0.00008933,0.00002959,-0.00001441,0.00006801,0.00009902,-0.0000
 0627,0.00006214,0.00023394,0.00027003,0.00033930,0.00009386,-0.0000941
 8,-0.00000318,-0.00203851,0.00168557,0.00418549,0.00002439,-0.00024791
 ,0.00017491,-0.16236034,0.07706449,-0.15792499,-0.04012762,0.01469981,
 -0.02034574,0.20269372,-0.09220600,0.17634987,-0.00002567,0.00019864,-
 0.00012544,-0.00003889,-0.00023896,-0.00004835,0.00012097,0.00004163,0
 .00005728,0.00002551,0.00006263,-0.00001602,0.00002693,-0.00001444,0.0
 0004393,-0.00002374,-0.00000396,-0.00003811,-0.00039625,-0.00130942,0.
 00210996,-0.00618256,0.00973496,0.00446405,0.00029389,0.00126113,-0.00
 029969,0.00002844,-0.00000080,0.00001360,0.00004816,0.00060138,0.00031
 368,-0.00003036,0.00008114,0.00002945,0.00007015,0.00013034,0.00016556
 ,0.00002930,-0.00002959,0.00029709,0.00001916,-0.00036113,0.00036687,0
 .00001510,-0.00001565,-0.00003697,-0.00000332,-0.00003558,-0.00003536,
 -0.00005129,-0.00005757,0.00013387,-0.00009202,-0.00007072,0.00014966,
 -0.00025708,0.00014246,-0.00022592,0.00042823,-0.00038698,-0.00011616,
 0.00000342,-0.00005029,0.00002018,0.00000334,0.00000084,0.00000358,-0.
 00000239,0.00000275,0.00000331,-0.00000734,-0.00003766,0.00000492,-0.0
 9994917,0.10484153,0.02321374,0.00006439,-0.00001796,0.00002811,0.0000
 6024,0.00005811,-0.00021694,0.00005108,0.00002998,-0.00000507,-0.00000
 024,-0.00011103,-0.00006675,-0.00000341,-0.00000351,-0.00000743,-0.000
 06423,-0.00001141,-0.00004650,-0.00001891,-0.00005174,-0.00011770,0.00
 006307,0.00000866,0.00003395,-0.00004228,-0.00001234,-0.00000450,-0.00
 000560,0.00000619,-0.00001095,0.10485144,-0.00002760,0.00015391,-0.000
 07294,0.00011353,0.00021753,0.00008038,0.00019228,0.00002312,0.0000946
 4,-0.00014794,0.00002103,-0.00007097,0.00003035,-0.00003328,0.00004618
 ,-0.00004219,0.00001867,-0.00004756,-0.00071731,0.00096621,0.00040689,
 -0.00220026,0.00261519,0.00019368,-0.00083984,0.00119719,0.00054666,0.
 00002184,0.00015415,-0.00017580,-0.00014684,0.00001420,0.00035199,-0.0
 0013853,0.00014008,0.00001775,0.00004483,0.00018557,0.00026382,-0.0004
 4658,0.00017383,0.00014303,0.00044439,0.00018258,-0.00018467,0.0000029
 3,0.00002599,0.00000148,0.00001101,-0.00000309,-0.00001983,-0.00000152
 ,0.00007578,0.00002965,0.00000597,0.00003880,-0.00000082,0.00015697,-0
 .00016825,0.00003123,-0.00017091,0.00004754,0.00007378,0.00004263,-0.0
 0009819,0.00002621,0.00000405,0.00000706,-0.00000139,-0.00000494,-0.00
 000095,0.00000098,-0.00003546,0.00003308,0.00000673,0.10796960,-0.2603
 1749,-0.04840212,0.00023627,-0.00007101,0.00010687,0.00057734,-0.00024
 912,-0.00014827,0.00003741,0.00001911,-0.00003508,0.00001874,-0.000182
 90,-0.00011591,-0.00000014,0.00000153,-0.00000037,-0.00006558,-0.00002
 907,-0.00008979,-0.00001381,-0.00005987,-0.00020522,0.00006647,0.00001
 788,0.00006394,-0.00006149,-0.00001459,-0.00001947,-0.00000651,0.00000
 285,-0.00001685,-0.11578282,0.27505773,-0.00017690,-0.00009293,0.00001
 412,0.00044501,0.00063629,0.00008993,-0.00009691,-0.00000567,0.0000418
 7,-0.00006718,-0.00000008,-0.00004142,-0.00002277,-0.00003798,-0.00001
 816,0.00000622,-0.00003873,0.00004711,0.00161565,0.00242691,-0.0051014
 2,0.01611423,-0.03293379,-0.01214090,-0.00011352,-0.00150271,0.0012400
 5,-0.00041392,-0.00025550,0.00001204,0.00121581,-0.00146697,-0.0003003
 0,-0.00003600,0.00008348,0.00002648,0.00014545,0.00012444,0.00007012,-
 0.00036854,0.00045732,0.00024398,0.00003157,0.00058015,-0.00010027,-0.
 00004373,0.00006614,0.00007148,0.00001739,0.00006083,-0.00000988,0.000
 18136,0.00016991,-0.00057757,-0.00000432,-0.00001537,-0.00006031,0.000
 04738,0.00039181,-0.00014648,0.00036599,-0.00010907,0.00003843,0.00006
 308,-0.00007322,0.00000762,0.00000361,0.00000018,-0.00000130,-0.000009
 39,-0.00001572,-0.00001027,0.00004906,-0.00003876,-0.00004172,0.020223
 56,-0.03913149,-0.05673599,0.00007337,-0.00003704,0.00002597,0.0008577
 9,-0.00075230,-0.00009573,-0.00003686,0.00002659,-0.00019404,-0.000003
 85,-0.00010564,-0.00006562,-0.00000453,-0.00000621,-0.00000472,-0.0000
 7455,0.00001158,0.00002292,-0.00013848,-0.00011789,-0.00006809,0.00003
 625,-0.00000491,-0.00003075,0.00000394,0.00000128,0.00001962,-0.000005
 60,-0.00000186,0.00000234,-0.02975502,0.05164708,0.06858833,0.00000419
 ,0.00023862,-0.00015728,-0.00007935,0.00010972,0.00002806,0.00045931,0
 .00003344,0.00013465,-0.00018582,-0.00001291,-0.00007827,-0.00000979,-
 0.00003865,0.00004868,0.00001133,0.00014258,-0.00007939,0.00006607,-0.
 00134706,-0.00042284,-0.00758687,-0.00742805,0.00335674,0.00020558,0.0
 0162896,0.00194333,-0.00002266,-0.00066946,0.00019329,-0.00001568,-0.0
 0014569,0.00003205,-0.00015175,0.00015293,0.00000448,0.00011334,0.0001
 1175,0.00024754,0.00015747,-0.00006800,0.00026007,0.00004287,-0.000287
 76,0.00003726,-0.00003143,0.00003476,0.00013209,-0.00010644,0.00007900
 ,0.00018205,-0.00000841,0.00002624,-0.00001135,0.00001678,0.00004044,0
 .00001660,0.00046628,0.00031880,-0.00002517,-0.00019460,-0.00000026,-0
 .00016967,-0.00000251,-0.00009051,0.00000203,0.00000432,0.00001382,0.0
 0000191,-0.00000336,-0.00000098,0.00000852,-0.00008669,0.00002195,0.00
 004113,-0.17168324,-0.13352991,0.01564794,0.00028215,-0.00008384,0.000
 13789,-0.00024506,0.00010070,-0.00019586,0.00001860,0.00001692,0.00004
 964,0.00001182,-0.00018821,-0.00012152,-0.00000621,0.00000094,0.000005
 67,-0.00008815,0.00002252,-0.00004428,-0.00000098,-0.00001436,-0.00008
 122,0.00004416,-0.00000789,0.00001734,-0.00002675,-0.00000031,-0.00000
 017,-0.00000461,0.00000027,-0.00000787,0.01071275,0.01096969,-0.002038
 19,0.18219856,0.00008088,0.00012637,-0.00017855,0.00015614,-0.00039486
 ,-0.00055312,0.00000815,-0.00016125,-0.00051626,0.00018744,0.00013783,
 0.00007813,-0.00003533,-0.00002545,0.00005335,0.00000861,-0.00003290,-
 0.00001652,0.00064063,0.00016180,-0.00004145,0.00147539,0.00032932,0.0
 0102639,0.00034521,0.00114701,0.00033502,-0.00013918,0.00004724,-0.000
 36067,-0.00013775,0.00004399,0.00010539,0.00010117,-0.00017219,-0.0000
 7098,-0.00020221,-0.00012459,-0.00047559,0.00047440,0.00005749,-0.0000
 5578,0.00007163,0.00034061,-0.00021999,-0.00004655,0.00005171,0.000101
 17,0.00003078,-0.00000263,0.00000856,-0.00002174,0.00003937,0.00002506
 ,0.00000919,0.00000456,0.00001877,0.00004127,-0.00007518,-0.00009379,-
 0.00004383,-0.00002129,0.00004030,-0.00004207,0.00003113,0.00013892,-0
 .00000144,0.00000149,-0.00000479,-0.00000156,0.00001100,0.00000052,-0.
 00000730,0.00000123,0.00002420,-0.13526157,-0.19345499,0.01779768,-0.0
 0018363,0.00006950,-0.00006273,-0.00064817,-0.00005180,-0.00000335,-0.
 00002604,-0.00004983,-0.00004757,0.00000144,0.00024089,0.00017185,0.00
 000290,0.00000180,0.00001571,0.00014364,-0.00003367,0.00008490,-0.0000
 1433,-0.00011640,0.00035754,-0.00009527,0.00003915,-0.00005523,0.00006
 930,-0.00000955,0.00001509,0.00000575,-0.00001385,0.00002215,-0.019418
 58,-0.01762299,0.00230171,0.14716130,0.20506971,-0.00007547,-0.0005165
 6,0.00006890,0.00013528,-0.00031816,-0.00054396,0.00017989,-0.00017484
 ,-0.00023876,-0.00010020,-0.00032599,0.00010456,-0.00018385,0.00017924
 ,-0.00021089,0.00029677,0.00014881,0.00010804,0.00007836,0.00095787,0.
 00136394,0.02459206,0.02913356,-0.00753391,0.00123571,-0.00289563,-0.0
 0529988,0.00149934,0.00131985,-0.00007838,-0.00023691,0.00037482,0.000
 02778,0.00008298,0.00004698,0.00006798,0.00030391,-0.00005105,0.000125
 23,-0.00049917,-0.00012640,-0.00006731,-0.00021120,0.00005125,0.000013
 51,0.00015664,-0.00011639,-0.00056541,0.00005489,0.00000828,-0.0000937
 6,-0.00004208,-0.00004857,0.00005618,-0.00001308,-0.00006119,-0.000031
 22,0.00044212,0.00002498,0.00009889,0.00006806,-0.00032460,-0.00022865
 ,0.00002435,0.00010061,-0.00010008,-0.00000727,-0.00000087,-0.00000125
 ,0.00000003,0.00000732,0.00000374,-0.00005182,0.00002616,0.00001200,0.
 01011326,0.01060431,-0.04965411,-0.00011931,-0.00000312,-0.00006813,0.
 00090061,0.00008036,0.00031028,0.00000660,0.00001551,0.00001798,-0.000
 03848,-0.00007789,-0.00005855,-0.00000489,-0.00000774,-0.00001728,-0.0
 0010613,0.00004705,0.00010099,-0.00006192,0.00012312,-0.00017275,0.000
 03689,-0.00002915,-0.00005310,0.00001863,-0.00000787,0.00002335,-0.000
 00144,0.00000382,0.00000089,-0.00496700,-0.00378978,0.00035756,-0.0212
 2561,-0.01935450,0.05943969,-0.00013006,0.00018821,-0.00016192,-0.0001
 1861,-0.00002325,-0.00005627,-0.00019212,-0.00004266,-0.00006882,0.000
 13561,0.00016111,0.00001316,0.00004368,-0.00004104,0.00006795,-0.00010
 162,-0.00008307,0.00001089,0.00286884,-0.00134189,0.00180253,0.0101418
 3,-0.00236130,0.00828982,0.00333241,0.00083387,0.00211911,0.00002197,0
 .00004023,-0.00000769,0.00006942,-0.00002721,0.00002686,-0.00000197,-0
 .00014343,-0.00007399,-0.00029395,-0.00011516,-0.00023605,0.00002370,0
 .00002110,-0.00035949,-0.00037417,-0.00001963,-0.00007273,-0.00000333,
 0.00002048,-0.00007229,-0.00004044,0.00003086,0.00001612,-0.00003669,-
 0.00001423,-0.00007880,-0.00007898,-0.00006004,0.00003902,0.00012630,0
 .00092217,-0.00145252,0.00002569,-0.00089316,-0.00155353,-0.00000333,0
 .00009255,0.00009128,0.00001128,-0.00000150,-0.00000145,-0.00000680,-0
 .00001285,-0.00001246,0.00008597,-0.00005832,-0.00005249,-0.19512050,0
 .02831083,-0.11784807,-0.00003546,0.00003335,-0.00000552,0.00011897,-0
 .00019207,0.00087895,-0.00002419,-0.00005534,0.00007398,0.00002787,0.0
 0018926,0.00012842,0.00001548,0.00001460,0.00001748,0.00016112,-0.0000
 4336,-0.00001585,0.00015631,0.00002260,0.00017411,-0.00008809,0.000029
 97,0.00001589,0.00003063,0.00000108,-0.00001488,0.00001098,-0.00000541
 ,0.00000650,-0.00972081,-0.00009602,-0.00808645,-0.01427521,0.00531136
 ,-0.01228055,0.20323826,-0.00007213,0.00014301,-0.00002231,0.00009320,
 -0.00022335,0.00016867,-0.00016706,-0.00006808,-0.00003249,0.00017087,
 0.00019934,0.00003204,0.00004987,-0.00004482,0.00005762,-0.00006699,-0
 .00005899,0.00000097,-0.00239097,0.00118254,-0.00178310,0.00005237,0.0
 0012327,0.00141351,0.00223073,0.00064718,0.00129779,-0.00024904,0.0000
 0805,-0.00007224,0.00016613,-0.00002846,-0.00008826,0.00003574,-0.0000
 1563,-0.00000351,-0.00004572,0.00006817,-0.00009876,0.00004768,0.00001
 758,0.00014495,0.00007706,-0.00003445,-0.00008375,-0.00005592,0.000020
 45,0.00003388,-0.00002301,-0.00007734,-0.00010491,0.00002407,-0.000010
 43,0.00001255,0.00002702,-0.00007769,0.00003115,-0.00038659,-0.0000134
 7,-0.00023377,0.00008522,0.00033857,0.00059088,-0.00000536,0.00000339,
 0.00006214,0.00000679,-0.00000225,-0.00000037,0.00000215,-0.00000443,-
 0.00000694,0.00004732,-0.00005399,-0.00001413,0.02762049,-0.05583213,0
 .02257498,-0.00006112,0.00002785,-0.00001163,-0.00013292,0.00001761,-0
 .00020566,0.00004800,0.00000937,-0.00007220,-0.00000313,0.00001796,0.0
 0002434,-0.00000155,-0.00000384,-0.00000210,0.00001206,-0.00002679,-0.
 00000121,-0.00005149,-0.00010092,0.00005433,0.00000781,0.00001737,0.00
 000305,-0.00000357,-0.00000871,0.00000230,-0.00000358,-0.00000100,0.00
 000055,0.02081980,-0.00253980,0.01775812,-0.01731150,0.00441023,-0.015
 02360,-0.03059273,0.05197461,-0.00018731,-0.00004297,-0.00011647,0.000
 40886,-0.00018591,0.00008114,-0.00011339,0.00015602,-0.00009137,0.0000
 8480,-0.00004314,0.00006337,-0.00000527,-0.00006359,-0.00001918,-0.000
 02605,-0.00005108,0.00005172,-0.00333424,0.00367056,0.00104203,-0.0180
 7399,0.00536451,-0.03943002,-0.00346551,-0.00287922,0.00067509,0.00027
 523,-0.00014095,0.00062063,0.00043016,0.00004939,0.00055170,-0.0000268
 1,-0.00002706,0.00001694,-0.00012471,-0.00009996,0.00022391,-0.0020528
 2,0.00049154,-0.00080595,0.00027149,0.00022000,0.00006202,0.00011864,-
 0.00005545,-0.00007655,-0.00007410,0.00001862,0.00023484,0.00016145,0.
 00000011,-0.00006566,-0.00006874,-0.00004024,0.00028663,0.00157360,0.0
 0072720,0.00067250,0.00157660,-0.00122291,0.00047148,0.00010901,0.0001
 5739,0.00003269,0.00000742,-0.00000772,0.00000691,-0.00000472,-0.00001
 482,-0.00000925,0.00004509,-0.00005704,-0.00002289,-0.11636989,0.02274
 577,-0.14272631,0.00001020,0.00001307,-0.00001570,0.00307191,-0.001030
 37,0.00094687,-0.00007219,-0.00009419,-0.00001754,0.00001680,0.0000168
 9,-0.00001399,0.00001476,0.00001091,0.00000003,0.00001263,-0.00003251,
 -0.00006404,0.00027007,0.00018447,-0.00024258,0.00000366,0.00001255,0.
 00004309,-0.00002221,-0.00000149,-0.00001202,0.00000300,0.00000223,-0.
 00001070,0.00468707,-0.00073614,0.00482496,0.00212972,-0.00061157,0.00
 271589,0.12873977,-0.02640289,0.17011581\\0.00000127,-0.00000230,-0.00
 000081,0.00000226,-0.00000098,0.00000112,0.00000104,0.00000072,0.00000
 270,0.00000084,-0.00000479,0.00000399,-0.00000098,0.00000272,-0.000001
 56,0.00000248,0.00000286,-0.00000031,0.00000783,-0.00001306,-0.0000280
 2,-0.00001111,0.00003260,0.00002470,0.00001211,-0.00001651,-0.00001984
 ,-0.00000855,0.00000842,0.00001160,-0.00000683,-0.00000581,0.00001862,
 0.00000369,-0.00002575,-0.00001475,0.00000714,-0.00001844,0.00000286,0
 .00000519,-0.00001555,0.00001081,-0.00000006,0.00000219,0.00000734,0.0
 0000067,0.00000104,-0.00000135,0.00000180,-0.00000192,-0.00000303,0.00
 000040,0.00000126,-0.00000406,-0.00000021,0.00000219,-0.00000198,0.000
 00097,0.00000404,0.00000450,-0.00000219,0.00000141,0.00000479,-0.00000
 022,-0.00000345,-0.00000135,0.00000131,-0.00000062,0.,0.00000089,0.000
 00027,0.00000002,0.00000055,0.00000135,0.00000106,0.00000659,-0.000002
 87,-0.00003095,-0.00000875,0.00000569,-0.00000284,0.00000300,0.0000030
 2,-0.00000876,-0.00000277,0.00000152,0.00000002,0.00000367,0.00003427,
 0.00002423,0.00000181,-0.00000009,-0.00000055,0.00000481,-0.00000591,-
 0.00000518,-0.00001720,0.00001012,-0.00001815,-0.00000061,-0.00000360,
 0.00000320,-0.00000439,0.00000204,-0.00000092,-0.00000106,-0.00000024,
 0.00000082,-0.00000885,0.00001185,0.00000674,-0.00000266,-0.00001125,0
 .00000352,0.00000615,0.00000357,0.00001176\\\@


 IT IS BY EATING THE LIGHT OF A STAR THAT WE EXIST, 
 IN THE FINAL ANALYSIS, 
 JUST AS IT IS BY PERCEIVING THE LIGHT OF STARS
 THAT WE DEFINE THE WORLD AROUND US.

                                    -- GILBERT GROSVENOR
 Job cpu time:       1 days  7 hours 30 minutes 56.8 seconds.
 Elapsed time:       0 days  1 hours  7 minutes 36.0 seconds.
 File lengths (MBytes):  RWF=   1240 Int=      0 D2E=      0 Chk=     32 Scr=      8
 Normal termination of Gaussian 16 at Mon Jul 12 16:05:00 2021.
