 Entering Gaussian System, Link 0=g16
 Input=Nic4h3bMidwB97XDaVDZTSOptFreq_4.gjf
 Output=Nic4h3bMidwB97XDaVDZTSOptFreq_4.log
 Initial command:
 /sw/contrib/gaussian/g16/A03/g16/l1.exe "/gscratch/scrubbed/gds001/Gau-26846.inp" -scrdir="/gscratch/scrubbed/gds001/"
 Entering Link 1 = /sw/contrib/gaussian/g16/A03/g16/l1.exe PID=     26847.
  
 Copyright (c) 1988,1990,1992,1993,1995,1998,2003,2009,2016,
            Gaussian, Inc.  All Rights Reserved.
  
 This is part of the Gaussian(R) 16 program.  It is based on
 the Gaussian(R) 09 system (copyright 2009, Gaussian, Inc.),
 the Gaussian(R) 03 system (copyright 2003, Gaussian, Inc.),
 the Gaussian(R) 98 system (copyright 1998, Gaussian, Inc.),
 the Gaussian(R) 94 system (copyright 1995, Gaussian, Inc.),
 the Gaussian 92(TM) system (copyright 1992, Gaussian, Inc.),
 the Gaussian 90(TM) system (copyright 1990, Gaussian, Inc.),
 the Gaussian 88(TM) system (copyright 1988, Gaussian, Inc.),
 the Gaussian 86(TM) system (copyright 1986, Carnegie Mellon
 University), and the Gaussian 82(TM) system (copyright 1983,
 Carnegie Mellon University). Gaussian is a federally registered
 trademark of Gaussian, Inc.
  
 This software contains proprietary and confidential information,
 including trade secrets, belonging to Gaussian, Inc.
  
 This software is provided under written license and may be
 used, copied, transmitted, or stored only in accord with that
 written license.
  
 The following legend is applicable only to US Government
 contracts under FAR:
  
                    RESTRICTED RIGHTS LEGEND
  
 Use, reproduction and disclosure by the US Government is
 subject to restrictions as set forth in subparagraphs (a)
 and (c) of the Commercial Computer Software - Restricted
 Rights clause in FAR 52.227-19.
  
 Gaussian, Inc.
 340 Quinnipiac St., Bldg. 40, Wallingford CT 06492
  
  
 ---------------------------------------------------------------
 Warning -- This program may not be used in any manner that
 competes with the business of Gaussian, Inc. or will provide
 assistance to any competitor of Gaussian, Inc.  The licensee
 of this program is prohibited from giving any competitor of
 Gaussian, Inc. access to this program.  By using this program,
 the user acknowledges that Gaussian, Inc. is engaged in the
 business of creating and licensing software in the field of
 computational chemistry and represents and warrants to the
 licensee that it is not a competitor of Gaussian, Inc. and that
 it will not use this program in any manner prohibited above.
 ---------------------------------------------------------------
  

 Cite this work as:
 Gaussian 16, Revision A.03,
 M. J. Frisch, G. W. Trucks, H. B. Schlegel, G. E. Scuseria, 
 M. A. Robb, J. R. Cheeseman, G. Scalmani, V. Barone, 
 G. A. Petersson, H. Nakatsuji, X. Li, M. Caricato, A. V. Marenich, 
 J. Bloino, B. G. Janesko, R. Gomperts, B. Mennucci, H. P. Hratchian, 
 J. V. Ortiz, A. F. Izmaylov, J. L. Sonnenberg, D. Williams-Young, 
 F. Ding, F. Lipparini, F. Egidi, J. Goings, B. Peng, A. Petrone, 
 T. Henderson, D. Ranasinghe, V. G. Zakrzewski, J. Gao, N. Rega, 
 G. Zheng, W. Liang, M. Hada, M. Ehara, K. Toyota, R. Fukuda, 
 J. Hasegawa, M. Ishida, T. Nakajima, Y. Honda, O. Kitao, H. Nakai, 
 T. Vreven, K. Throssell, J. A. Montgomery, Jr., J. E. Peralta, 
 F. Ogliaro, M. J. Bearpark, J. J. Heyd, E. N. Brothers, K. N. Kudin, 
 V. N. Staroverov, T. A. Keith, R. Kobayashi, J. Normand, 
 K. Raghavachari, A. P. Rendell, J. C. Burant, S. S. Iyengar, 
 J. Tomasi, M. Cossi, J. M. Millam, M. Klene, C. Adamo, R. Cammi, 
 J. W. Ochterski, R. L. Martin, K. Morokuma, O. Farkas, 
 J. B. Foresman, and D. J. Fox, Gaussian, Inc., Wallingford CT, 2016.
 
 ******************************************
 Gaussian 16:  ES64L-G16RevA.03 25-Dec-2016
                17-Nov-2022 
 ******************************************
 %nprocshared=28
 Will use up to   28 processors via shared memory.
 %mem=41GB
 ----------------------------------------------------------------
 # wB97XD/aug-cc-pVDZ opt=(TS,CalcAll,MaxStep=1,NoEigenTest) freq
 ----------------------------------------------------------------
 1/5=1,8=1,10=4,11=1,18=20,26=3,38=1/1,3;
 2/9=110,12=2,17=6,18=5,40=1/2;
 3/5=16,7=10,11=2,25=1,30=1,71=2,74=-58,140=1/1,2,3;
 4//1;
 5/5=2,38=5/2;
 8/6=4,10=90,11=11/1;
 11/6=1,8=1,9=11,15=111,16=1/1,2,10;
 10/6=1/2;
 6/7=2,8=2,9=2,10=2,18=1,28=1/1;
 7/10=1,25=1/1,2,3,16;
 1/5=1,8=1,10=4,11=1,18=20,26=3/3(3);
 2/9=110/2;
 7/8=1,9=1,25=1,44=-1/16;
 99//99;
 2/9=110/2;
 3/5=16,7=10,11=2,25=1,30=1,71=2,74=-58,140=1/1,2,3;
 4/5=5,16=3,69=1/1;
 5/5=2,38=5/2;
 8/6=4,10=90,11=11/1;
 11/6=1,8=1,9=11,15=111,16=1/1,2,10;
 10/6=1/2;
 7/10=1,25=1/1,2,3,16;
 1/5=1,8=1,10=4,11=1,18=20,26=3/3(-8);
 2/9=110/2;
 6/7=2,8=2,9=2,10=2,18=1,19=2,28=1/1;
 7/8=1,9=1,25=1,44=-1/16;
 99//99;
 ----
 blah
 ----
 Symbolic Z-matrix:
 Charge =  1 Multiplicity = 1
 N                    -1.22393   2.06746  -0.54256 
 C                    -1.07448   3.17956   0.18554 
 C                     0.07928   3.44556   0.91503 
 C                     1.10837   2.5082    0.89823 
 C                     0.96908   1.34548   0.14028 
 C                    -0.22081   1.18698  -0.57108 
 C                     2.05777   0.30262   0.09444 
 C                     2.63841  -0.01531  -1.29077 
 C                     3.19427  -1.45359  -1.15776 
 C                     2.75527  -1.91618   0.2404 
 N                     1.61628  -1.03375   0.57902 
 C                     1.25907  -1.06331   1.99981 
 H                    -1.91146   3.87797   0.18325 
 H                     0.16341   4.36496   1.49113 
 H                     2.0187    2.68333   1.47313 
 H                    -0.38229   0.30366  -1.19008 
 H                     2.87401   0.63396   0.75927 
 H                     3.40254   0.71705  -1.56873 
 H                     1.84807   0.03139  -2.0487 
 H                     4.28402  -1.48677  -1.252 
 H                     2.78088  -2.10322  -1.93686 
 H                     3.55687  -1.77054   0.98069 
 H                     2.43711  -2.96428   0.2879 
 H                     2.10442  -0.73851   2.62504 
 H                     0.97823  -2.08472   2.27894 
 H                     0.40381  -0.40175   2.17629 
 O                    -3.33403   0.66247  -1.48711 
 O                    -0.28456  -2.04077  -0.69494 
 O                    -2.65973  -1.67691  -0.70605 
 H                    -3.66399   0.8788   -2.36223 
 H                    -0.01939  -2.84877  -1.13928 
 H                    -3.13177  -1.86444   0.13941 
 H                    -2.65443   1.34133  -1.23558 
 H                    -2.93684  -0.77225  -1.06135 
 H                    -1.55031  -1.84283  -0.66623 
 H                     0.57381  -1.54571  -0.11829 
 O                    -3.92677  -2.21646   1.57893 
 H                    -4.46084  -1.55093   2.02291 
 H                    -4.41754  -3.04046   1.65472 
 
 Add virtual bond connecting atoms H36        and O28        Dist= 2.17D+00.
 Add virtual bond connecting atoms H35        and O28        Dist= 2.42D+00.
 Add virtual bond connecting atoms H36        and N11        Dist= 2.56D+00.
 Add virtual bond connecting atoms H34        and O27        Dist= 2.93D+00.
 Add virtual bond connecting atoms O37        and H32        Dist= 3.18D+00.

 GradGradGradGradGradGradGradGradGradGradGradGradGradGradGradGradGradGrad
 Berny optimization.
 Initialization pass.
                           ----------------------------
                           !    Initial Parameters    !
                           ! (Angstroms and Degrees)  !
 --------------------------                            --------------------------
 ! Name  Definition              Value          Derivative Info.                !
 --------------------------------------------------------------------------------
 ! R1    R(1,2)                  1.3376         calculate D2E/DX2 analytically  !
 ! R2    R(1,6)                  1.335          calculate D2E/DX2 analytically  !
 ! R3    R(2,3)                  1.3907         calculate D2E/DX2 analytically  !
 ! R4    R(2,13)                 1.0901         calculate D2E/DX2 analytically  !
 ! R5    R(3,4)                  1.3921         calculate D2E/DX2 analytically  !
 ! R6    R(3,14)                 1.0882         calculate D2E/DX2 analytically  !
 ! R7    R(4,5)                  1.3949         calculate D2E/DX2 analytically  !
 ! R8    R(4,15)                 1.0908         calculate D2E/DX2 analytically  !
 ! R9    R(5,6)                  1.3953         calculate D2E/DX2 analytically  !
 ! R10   R(5,7)                  1.5083         calculate D2E/DX2 analytically  !
 ! R11   R(6,16)                 1.0906         calculate D2E/DX2 analytically  !
 ! R12   R(7,8)                  1.5353         calculate D2E/DX2 analytically  !
 ! R13   R(7,11)                 1.4885         calculate D2E/DX2 analytically  !
 ! R14   R(7,17)                 1.1037         calculate D2E/DX2 analytically  !
 ! R15   R(8,9)                  1.5477         calculate D2E/DX2 analytically  !
 ! R16   R(8,18)                 1.0943         calculate D2E/DX2 analytically  !
 ! R17   R(8,19)                 1.096          calculate D2E/DX2 analytically  !
 ! R18   R(9,10)                 1.5367         calculate D2E/DX2 analytically  !
 ! R19   R(9,20)                 1.0943         calculate D2E/DX2 analytically  !
 ! R20   R(9,21)                 1.0954         calculate D2E/DX2 analytically  !
 ! R21   R(10,11)                1.4801         calculate D2E/DX2 analytically  !
 ! R22   R(10,22)                1.1008         calculate D2E/DX2 analytically  !
 ! R23   R(10,23)                1.0964         calculate D2E/DX2 analytically  !
 ! R24   R(11,12)                1.4653         calculate D2E/DX2 analytically  !
 ! R25   R(11,36)                1.3547         calculate D2E/DX2 analytically  !
 ! R26   R(12,24)                1.1005         calculate D2E/DX2 analytically  !
 ! R27   R(12,25)                1.0955         calculate D2E/DX2 analytically  !
 ! R28   R(12,26)                1.0956         calculate D2E/DX2 analytically  !
 ! R29   R(27,30)                0.9599         calculate D2E/DX2 analytically  !
 ! R30   R(27,33)                0.993          calculate D2E/DX2 analytically  !
 ! R31   R(27,34)                1.5484         calculate D2E/DX2 analytically  !
 ! R32   R(28,31)                0.9595         calculate D2E/DX2 analytically  !
 ! R33   R(28,35)                1.2815         calculate D2E/DX2 analytically  !
 ! R34   R(28,36)                1.1465         calculate D2E/DX2 analytically  !
 ! R35   R(29,32)                0.9863         calculate D2E/DX2 analytically  !
 ! R36   R(29,34)                1.0107         calculate D2E/DX2 analytically  !
 ! R37   R(29,35)                1.1225         calculate D2E/DX2 analytically  !
 ! R38   R(32,37)                1.6817         calculate D2E/DX2 analytically  !
 ! R39   R(37,38)                0.9619         calculate D2E/DX2 analytically  !
 ! R40   R(37,39)                0.9621         calculate D2E/DX2 analytically  !
 ! A1    A(2,1,6)              118.4247         calculate D2E/DX2 analytically  !
 ! A2    A(1,2,3)              122.4959         calculate D2E/DX2 analytically  !
 ! A3    A(1,2,13)             116.4711         calculate D2E/DX2 analytically  !
 ! A4    A(3,2,13)             121.0329         calculate D2E/DX2 analytically  !
 ! A5    A(2,3,4)              118.5652         calculate D2E/DX2 analytically  !
 ! A6    A(2,3,14)             120.2268         calculate D2E/DX2 analytically  !
 ! A7    A(4,3,14)             121.2056         calculate D2E/DX2 analytically  !
 ! A8    A(3,4,5)              119.6035         calculate D2E/DX2 analytically  !
 ! A9    A(3,4,15)             120.1628         calculate D2E/DX2 analytically  !
 ! A10   A(5,4,15)             120.2336         calculate D2E/DX2 analytically  !
 ! A11   A(4,5,6)              117.1839         calculate D2E/DX2 analytically  !
 ! A12   A(4,5,7)              121.3837         calculate D2E/DX2 analytically  !
 ! A13   A(6,5,7)              121.4323         calculate D2E/DX2 analytically  !
 ! A14   A(1,6,5)              123.7066         calculate D2E/DX2 analytically  !
 ! A15   A(1,6,16)             115.7873         calculate D2E/DX2 analytically  !
 ! A16   A(5,6,16)             120.5041         calculate D2E/DX2 analytically  !
 ! A17   A(5,7,8)              116.3336         calculate D2E/DX2 analytically  !
 ! A18   A(5,7,11)             113.377          calculate D2E/DX2 analytically  !
 ! A19   A(5,7,17)             107.9355         calculate D2E/DX2 analytically  !
 ! A20   A(8,7,11)             102.7086         calculate D2E/DX2 analytically  !
 ! A21   A(8,7,17)             109.0247         calculate D2E/DX2 analytically  !
 ! A22   A(11,7,17)            107.0248         calculate D2E/DX2 analytically  !
 ! A23   A(7,8,9)              104.5213         calculate D2E/DX2 analytically  !
 ! A24   A(7,8,18)             110.7742         calculate D2E/DX2 analytically  !
 ! A25   A(7,8,19)             110.0227         calculate D2E/DX2 analytically  !
 ! A26   A(9,8,18)             113.1398         calculate D2E/DX2 analytically  !
 ! A27   A(9,8,19)             110.978          calculate D2E/DX2 analytically  !
 ! A28   A(18,8,19)            107.419          calculate D2E/DX2 analytically  !
 ! A29   A(8,9,10)             104.7932         calculate D2E/DX2 analytically  !
 ! A30   A(8,9,20)             112.2365         calculate D2E/DX2 analytically  !
 ! A31   A(8,9,21)             110.7608         calculate D2E/DX2 analytically  !
 ! A32   A(10,9,20)            110.714          calculate D2E/DX2 analytically  !
 ! A33   A(10,9,21)            111.148          calculate D2E/DX2 analytically  !
 ! A34   A(20,9,21)            107.2521         calculate D2E/DX2 analytically  !
 ! A35   A(9,10,11)            104.3903         calculate D2E/DX2 analytically  !
 ! A36   A(9,10,22)            111.3466         calculate D2E/DX2 analytically  !
 ! A37   A(9,10,23)            114.2104         calculate D2E/DX2 analytically  !
 ! A38   A(11,10,22)           109.1254         calculate D2E/DX2 analytically  !
 ! A39   A(11,10,23)           109.6775         calculate D2E/DX2 analytically  !
 ! A40   A(22,10,23)           107.9781         calculate D2E/DX2 analytically  !
 ! A41   A(7,11,10)            103.4465         calculate D2E/DX2 analytically  !
 ! A42   A(7,11,12)            113.9591         calculate D2E/DX2 analytically  !
 ! A43   A(7,11,36)            113.5763         calculate D2E/DX2 analytically  !
 ! A44   A(10,11,12)           113.4163         calculate D2E/DX2 analytically  !
 ! A45   A(10,11,36)           104.425          calculate D2E/DX2 analytically  !
 ! A46   A(12,11,36)           107.6913         calculate D2E/DX2 analytically  !
 ! A47   A(11,12,24)           110.9568         calculate D2E/DX2 analytically  !
 ! A48   A(11,12,25)           109.1696         calculate D2E/DX2 analytically  !
 ! A49   A(11,12,26)           109.5306         calculate D2E/DX2 analytically  !
 ! A50   A(24,12,25)           109.109          calculate D2E/DX2 analytically  !
 ! A51   A(24,12,26)           109.2646         calculate D2E/DX2 analytically  !
 ! A52   A(25,12,26)           108.7752         calculate D2E/DX2 analytically  !
 ! A53   A(30,27,33)           108.1864         calculate D2E/DX2 analytically  !
 ! A54   A(30,27,34)           123.2069         calculate D2E/DX2 analytically  !
 ! A55   A(33,27,34)           112.8465         calculate D2E/DX2 analytically  !
 ! A56   A(31,28,35)           114.4201         calculate D2E/DX2 analytically  !
 ! A57   A(31,28,36)           112.9328         calculate D2E/DX2 analytically  !
 ! A58   A(35,28,36)           131.419          calculate D2E/DX2 analytically  !
 ! A59   A(32,29,34)           109.8962         calculate D2E/DX2 analytically  !
 ! A60   A(32,29,35)           114.4895         calculate D2E/DX2 analytically  !
 ! A61   A(34,29,35)           114.5678         calculate D2E/DX2 analytically  !
 ! A62   A(32,37,38)           120.8462         calculate D2E/DX2 analytically  !
 ! A63   A(32,37,39)           119.2003         calculate D2E/DX2 analytically  !
 ! A64   A(38,37,39)           105.8426         calculate D2E/DX2 analytically  !
 ! A65   L(29,32,37,2,-1)      180.9551         calculate D2E/DX2 analytically  !
 ! A66   L(27,34,29,4,-1)      176.5607         calculate D2E/DX2 analytically  !
 ! A67   L(28,35,29,1,-1)      180.4882         calculate D2E/DX2 analytically  !
 ! A68   L(11,36,28,1,-1)      183.3505         calculate D2E/DX2 analytically  !
 ! A69   L(29,32,37,2,-2)      180.69           calculate D2E/DX2 analytically  !
 ! A70   L(27,34,29,4,-2)      176.4798         calculate D2E/DX2 analytically  !
 ! A71   L(28,35,29,1,-2)      176.6901         calculate D2E/DX2 analytically  !
 ! A72   L(11,36,28,1,-2)      180.4369         calculate D2E/DX2 analytically  !
 ! D1    D(6,1,2,3)             -0.3513         calculate D2E/DX2 analytically  !
 ! D2    D(6,1,2,13)           179.779          calculate D2E/DX2 analytically  !
 ! D3    D(2,1,6,5)              1.4348         calculate D2E/DX2 analytically  !
 ! D4    D(2,1,6,16)          -179.0833         calculate D2E/DX2 analytically  !
 ! D5    D(1,2,3,4)             -0.8609         calculate D2E/DX2 analytically  !
 ! D6    D(1,2,3,14)           179.698          calculate D2E/DX2 analytically  !
 ! D7    D(13,2,3,4)           179.003          calculate D2E/DX2 analytically  !
 ! D8    D(13,2,3,14)           -0.438          calculate D2E/DX2 analytically  !
 ! D9    D(2,3,4,5)              1.0335         calculate D2E/DX2 analytically  !
 ! D10   D(2,3,4,15)          -179.0762         calculate D2E/DX2 analytically  !
 ! D11   D(14,3,4,5)          -179.5312         calculate D2E/DX2 analytically  !
 ! D12   D(14,3,4,15)            0.3592         calculate D2E/DX2 analytically  !
 ! D13   D(3,4,5,6)             -0.0577         calculate D2E/DX2 analytically  !
 ! D14   D(3,4,5,7)           -179.9258         calculate D2E/DX2 analytically  !
 ! D15   D(15,4,5,6)          -179.948          calculate D2E/DX2 analytically  !
 ! D16   D(15,4,5,7)             0.1839         calculate D2E/DX2 analytically  !
 ! D17   D(4,5,6,1)             -1.2262         calculate D2E/DX2 analytically  !
 ! D18   D(4,5,6,16)           179.3152         calculate D2E/DX2 analytically  !
 ! D19   D(7,5,6,1)            178.6418         calculate D2E/DX2 analytically  !
 ! D20   D(7,5,6,16)            -0.8168         calculate D2E/DX2 analytically  !
 ! D21   D(4,5,7,8)           -121.003          calculate D2E/DX2 analytically  !
 ! D22   D(4,5,7,11)           120.2221         calculate D2E/DX2 analytically  !
 ! D23   D(4,5,7,17)             1.8514         calculate D2E/DX2 analytically  !
 ! D24   D(6,5,7,8)             59.1345         calculate D2E/DX2 analytically  !
 ! D25   D(6,5,7,11)           -59.6403         calculate D2E/DX2 analytically  !
 ! D26   D(6,5,7,17)          -178.0111         calculate D2E/DX2 analytically  !
 ! D27   D(5,7,8,9)           -155.2582         calculate D2E/DX2 analytically  !
 ! D28   D(5,7,8,18)            82.5721         calculate D2E/DX2 analytically  !
 ! D29   D(5,7,8,19)           -36.0488         calculate D2E/DX2 analytically  !
 ! D30   D(11,7,8,9)           -30.8238         calculate D2E/DX2 analytically  !
 ! D31   D(11,7,8,18)         -152.9934         calculate D2E/DX2 analytically  !
 ! D32   D(11,7,8,19)           88.3857         calculate D2E/DX2 analytically  !
 ! D33   D(17,7,8,9)            82.4573         calculate D2E/DX2 analytically  !
 ! D34   D(17,7,8,18)          -39.7124         calculate D2E/DX2 analytically  !
 ! D35   D(17,7,8,19)         -158.3332         calculate D2E/DX2 analytically  !
 ! D36   D(5,7,11,10)          171.2578         calculate D2E/DX2 analytically  !
 ! D37   D(5,7,11,12)          -65.1427         calculate D2E/DX2 analytically  !
 ! D38   D(5,7,11,36)           58.6886         calculate D2E/DX2 analytically  !
 ! D39   D(8,7,11,10)           44.8958         calculate D2E/DX2 analytically  !
 ! D40   D(8,7,11,12)          168.4952         calculate D2E/DX2 analytically  !
 ! D41   D(8,7,11,36)          -67.6735         calculate D2E/DX2 analytically  !
 ! D42   D(17,7,11,10)         -69.8462         calculate D2E/DX2 analytically  !
 ! D43   D(17,7,11,12)          53.7533         calculate D2E/DX2 analytically  !
 ! D44   D(17,7,11,36)         177.5846         calculate D2E/DX2 analytically  !
 ! D45   D(7,8,9,10)             6.1231         calculate D2E/DX2 analytically  !
 ! D46   D(7,8,9,20)          -114.0881         calculate D2E/DX2 analytically  !
 ! D47   D(7,8,9,21)           126.0681         calculate D2E/DX2 analytically  !
 ! D48   D(18,8,9,10)          126.7295         calculate D2E/DX2 analytically  !
 ! D49   D(18,8,9,20)            6.5182         calculate D2E/DX2 analytically  !
 ! D50   D(18,8,9,21)         -113.3255         calculate D2E/DX2 analytically  !
 ! D51   D(19,8,9,10)         -112.439          calculate D2E/DX2 analytically  !
 ! D52   D(19,8,9,20)          127.3498         calculate D2E/DX2 analytically  !
 ! D53   D(19,8,9,21)            7.506          calculate D2E/DX2 analytically  !
 ! D54   D(8,9,10,11)           21.0133         calculate D2E/DX2 analytically  !
 ! D55   D(8,9,10,22)          -96.596          calculate D2E/DX2 analytically  !
 ! D56   D(8,9,10,23)          140.7835         calculate D2E/DX2 analytically  !
 ! D57   D(20,9,10,11)         142.2328         calculate D2E/DX2 analytically  !
 ! D58   D(20,9,10,22)          24.6235         calculate D2E/DX2 analytically  !
 ! D59   D(20,9,10,23)         -97.997          calculate D2E/DX2 analytically  !
 ! D60   D(21,9,10,11)         -98.6729         calculate D2E/DX2 analytically  !
 ! D61   D(21,9,10,22)         143.7178         calculate D2E/DX2 analytically  !
 ! D62   D(21,9,10,23)          21.0973         calculate D2E/DX2 analytically  !
 ! D63   D(9,10,11,7)          -41.1866         calculate D2E/DX2 analytically  !
 ! D64   D(9,10,11,12)        -165.1421         calculate D2E/DX2 analytically  !
 ! D65   D(9,10,11,36)          77.8998         calculate D2E/DX2 analytically  !
 ! D66   D(22,10,11,7)          77.9391         calculate D2E/DX2 analytically  !
 ! D67   D(22,10,11,12)        -46.0163         calculate D2E/DX2 analytically  !
 ! D68   D(22,10,11,36)       -162.9744         calculate D2E/DX2 analytically  !
 ! D69   D(23,10,11,7)        -163.9645         calculate D2E/DX2 analytically  !
 ! D70   D(23,10,11,12)         72.0801         calculate D2E/DX2 analytically  !
 ! D71   D(23,10,11,36)        -44.878          calculate D2E/DX2 analytically  !
 ! D72   D(7,11,12,24)         -57.93           calculate D2E/DX2 analytically  !
 ! D73   D(7,11,12,25)        -178.2137         calculate D2E/DX2 analytically  !
 ! D74   D(7,11,12,26)          62.7824         calculate D2E/DX2 analytically  !
 ! D75   D(10,11,12,24)         60.088          calculate D2E/DX2 analytically  !
 ! D76   D(10,11,12,25)        -60.1957         calculate D2E/DX2 analytically  !
 ! D77   D(10,11,12,26)       -179.1996         calculate D2E/DX2 analytically  !
 ! D78   D(36,11,12,24)        175.1176         calculate D2E/DX2 analytically  !
 ! D79   D(36,11,12,25)         54.8339         calculate D2E/DX2 analytically  !
 ! D80   D(36,11,12,26)        -64.17           calculate D2E/DX2 analytically  !
 ! D81   D(7,11,28,31)         115.9543         calculate D2E/DX2 analytically  !
 ! D82   D(7,11,28,35)         -79.3097         calculate D2E/DX2 analytically  !
 ! D83   D(10,11,28,31)          4.0965         calculate D2E/DX2 analytically  !
 ! D84   D(10,11,28,35)        168.8325         calculate D2E/DX2 analytically  !
 ! D85   D(12,11,28,31)       -116.031          calculate D2E/DX2 analytically  !
 ! D86   D(12,11,28,35)         48.7049         calculate D2E/DX2 analytically  !
 ! D87   D(30,27,29,32)       -128.267          calculate D2E/DX2 analytically  !
 ! D88   D(30,27,29,35)        103.2586         calculate D2E/DX2 analytically  !
 ! D89   D(33,27,29,32)         98.2298         calculate D2E/DX2 analytically  !
 ! D90   D(33,27,29,35)        -30.2446         calculate D2E/DX2 analytically  !
 ! D91   D(31,28,29,32)        103.6009         calculate D2E/DX2 analytically  !
 ! D92   D(31,28,29,34)       -127.0177         calculate D2E/DX2 analytically  !
 ! D93   D(36,28,29,32)        -64.0819         calculate D2E/DX2 analytically  !
 ! D94   D(36,28,29,34)         65.2995         calculate D2E/DX2 analytically  !
 ! D95   D(34,29,37,38)         -8.1643         calculate D2E/DX2 analytically  !
 ! D96   D(34,29,37,39)        126.2392         calculate D2E/DX2 analytically  !
 ! D97   D(35,29,37,38)        122.7824         calculate D2E/DX2 analytically  !
 ! D98   D(35,29,37,39)       -102.8141         calculate D2E/DX2 analytically  !
 --------------------------------------------------------------------------------
 Trust Radius=1.00D-02 FncErr=1.00D-07 GrdErr=1.00D-06 EigMax=2.50D+02 EigMin=1.00D-04
 Number of steps in this run=    220 maximum allowed number of steps=    234.
 Search for a saddle point of order  1.
 GradGradGradGradGradGradGradGradGradGradGradGradGradGradGradGradGradGrad

                          Input orientation:                          
 ---------------------------------------------------------------------
 Center     Atomic      Atomic             Coordinates (Angstroms)
 Number     Number       Type             X           Y           Z
 ---------------------------------------------------------------------
      1          7           0       -1.223930    2.067463   -0.542559
      2          6           0       -1.074483    3.179555    0.185541
      3          6           0        0.079279    3.445564    0.915026
      4          6           0        1.108367    2.508200    0.898229
      5          6           0        0.969076    1.345484    0.140277
      6          6           0       -0.220811    1.186982   -0.571076
      7          6           0        2.057766    0.302616    0.094437
      8          6           0        2.638409   -0.015311   -1.290766
      9          6           0        3.194269   -1.453588   -1.157758
     10          6           0        2.755271   -1.916175    0.240398
     11          7           0        1.616280   -1.033750    0.579024
     12          6           0        1.259068   -1.063313    1.999814
     13          1           0       -1.911456    3.877974    0.183254
     14          1           0        0.163410    4.364960    1.491131
     15          1           0        2.018703    2.683326    1.473131
     16          1           0       -0.382285    0.303662   -1.190078
     17          1           0        2.874009    0.633958    0.759274
     18          1           0        3.402541    0.717051   -1.568731
     19          1           0        1.848067    0.031385   -2.048700
     20          1           0        4.284017   -1.486766   -1.252000
     21          1           0        2.780879   -2.103223   -1.936860
     22          1           0        3.556868   -1.770543    0.980692
     23          1           0        2.437111   -2.964276    0.287897
     24          1           0        2.104419   -0.738505    2.625038
     25          1           0        0.978234   -2.084719    2.278939
     26          1           0        0.403813   -0.401753    2.176287
     27          8           0       -3.334032    0.662472   -1.487112
     28          8           0       -0.284558   -2.040769   -0.694936
     29          8           0       -2.659734   -1.676914   -0.706048
     30          1           0       -3.663986    0.878801   -2.362225
     31          1           0       -0.019393   -2.848768   -1.139276
     32          1           0       -3.131770   -1.864436    0.139405
     33          1           0       -2.654433    1.341332   -1.235579
     34          1           0       -2.936835   -0.772248   -1.061347
     35          1           0       -1.550310   -1.842829   -0.666234
     36          1           0        0.573807   -1.545711   -0.118287
     37          8           0       -3.926770   -2.216458    1.578927
     38          1           0       -4.460836   -1.550934    2.022914
     39          1           0       -4.417542   -3.040455    1.654715
 ---------------------------------------------------------------------
                    Distance matrix (angstroms):
                    1          2          3          4          5
     1  N    0.000000
     2  C    1.337615   0.000000
     3  C    2.392085   1.390711   0.000000
     4  C    2.776640   2.392379   1.392105   0.000000
     5  C    2.407653   2.746270   2.408799   1.394920   0.000000
     6  C    1.335031   2.295990   2.720247   2.381426   1.395341
     7  C    3.780209   4.253947   3.803406   2.532201   1.508284
     8  C    4.451452   5.115879   4.836561   3.674348   2.585792
     9  C    5.683023   6.441484   6.164518   4.926848   3.804101
    10  C    5.684755   6.374676   6.030282   4.766564   3.720072
    11  N    4.352271   5.014676   4.747581   3.592392   2.504421
    12  C    4.736106   5.170974   4.785252   3.740576   3.056841
    13  H    2.068199   1.090100   2.164600   3.392168   3.835729
    14  H    3.367358   2.154560   1.088239   2.166110   3.404576
    15  H    3.867423   3.387024   2.157279   1.090822   2.160564
    16  H    2.058796   3.262243   3.809994   3.382759   2.163658
    17  H    4.532418   4.732845   3.967355   2.578679   2.125605
    18  H    4.927563   5.402327   4.965672   3.815408   3.039307
    19  H    3.981362   4.841911   4.854781   3.919969   2.700204
    20  H    6.593431   7.249455   6.834011   5.537869   4.576998
    21  H    5.947873   6.875765   6.798598   5.665708   4.414828
    22  H    6.317168   6.825331   6.269427   4.930477   4.136737
    23  H    6.277840   7.077318   6.858477   5.664456   4.555321
    24  H    5.383775   5.604262   4.952955   3.809866   3.435993
    25  H    5.481879   6.025657   5.766490   4.797729   4.042308
    26  H    4.017300   4.355938   4.061767   3.255404   2.741842
    27  O    2.705312   3.773465   5.016628   5.369495   4.650983
    28  O    4.217014   5.352663   5.729241   5.017124   3.706196
    29  O    4.013555   5.185870   6.030742   5.855550   4.797856
    30  H    3.267717   4.300012   5.598275   6.005069   5.286357
    31  H    5.096696   6.261712   6.621821   5.841265   4.495117
    32  H    4.423207   5.447605   6.253681   6.137957   5.207737
    33  H    1.747536   2.809784   4.065228   4.480333   3.875928
    34  H    3.356657   4.543108   5.549138   5.564615   4.602698
    35  H    3.925838   5.116275   5.755262   5.333626   4.142838
    36  H    4.057942   5.013712   5.121047   4.213461   2.929522
    37  O    5.491632   6.260513   6.967617   6.938180   6.223058
    38  H    5.491085   6.100889   6.841422   6.982658   6.435643
    39  H    6.412332   7.212700   7.926978   7.867370   7.109545
                    6          7          8          9         10
     6  C    0.000000
     7  C    2.533165   0.000000
     8  C    3.184117   1.535256   0.000000
     9  C    4.356556   2.438008   1.547680   0.000000
    10  C    4.375516   2.330419   2.443646   1.536732   0.000000
    11  N    3.103109   1.488492   2.361796   2.383847   1.480082
    12  C    3.723351   2.476720   3.718710   3.723920   2.462020
    13  H    3.266303   5.342827   6.166983   7.502819   7.440011
    14  H    3.807869   4.694888   5.749030   7.075183   6.909033
    15  H    3.381309   2.751382   3.912263   5.041586   4.818462
    16  H    1.090638   2.757504   3.039157   3.985061   4.100999
    17  H    3.413734   1.103652   2.163266   2.852267   2.605093
    18  H    3.787457   2.178601   1.094311   2.218997   3.259722
    19  H    2.792675   2.170386   1.096031   2.193441   3.139423
    20  H    5.282619   3.157685   2.207874   1.094319   2.179153
    21  H    4.658429   3.230653   2.190231   1.095407   2.185428
    22  H    5.042400   2.707534   3.013955   2.192010   1.100819
    23  H    5.003531   3.294528   3.350984   2.223822   1.096357
    24  H    4.396514   2.736796   4.017670   4.001083   2.738069
    25  H    4.501591   3.411276   4.447631   4.137635   2.709597
    26  H    3.234538   2.750599   4.142851   4.473126   3.401543
    27  O    3.287306   5.630478   6.013983   6.870582   6.834714
    28  O    3.230756   3.406031   3.605722   3.558261   3.182913
    29  O    3.764102   5.178235   5.583291   5.875650   5.502298
    30  H    3.893410   6.253449   6.455048   7.343462   7.469431
    31  H    4.080527   3.970876   3.887845   3.503497   3.236045
    32  H    4.276636   5.624004   6.225722   6.470718   5.888135
    33  H    2.527430   5.005267   5.464220   6.482665   6.484964
    34  H    3.384632   5.238054   5.631068   6.169599   5.950057
    35  H    3.310042   4.266118   4.612508   4.785826   4.400612
    36  H    2.881674   2.379853   2.824785   2.820604   2.241581
    37  O    5.471750   6.660639   7.495449   7.666851   6.821400
    38  H    5.674749   7.046052   7.983601   8.290162   7.441973
    39  H    6.359082   7.452530   8.222761   8.268483   7.396860
                   11         12         13         14         15
    11  N    0.000000
    12  C    1.465305   0.000000
    13  H    6.060247   6.145602   0.000000
    14  H    5.664701   5.561059   2.500553   0.000000
    15  H    3.844220   3.858982   4.305475   2.504063   0.000000
    16  H    2.985407   3.839020   4.123119   4.897020   4.303513
    17  H    2.096574   2.650981   5.810001   4.669404   2.332606
    18  H    3.296799   4.527547   6.426465   5.758643   3.877392
    19  H    2.844850   4.235062   5.823391   5.843659   4.411938
    20  H    3.267215   4.461381   8.320113   7.664650   5.472445
    21  H    2.971487   4.346806   7.892250   7.774295   5.926213
    22  H    2.114257   2.611258   7.902165   7.029972   4.737657
    23  H    2.117888   2.816399   8.107859   7.767573   5.785780
    24  H    2.124058   1.100465   6.587977   5.576613   3.611532
    25  H    2.097939   1.095467   6.949526   6.548507   4.946327
    26  H    2.102557   1.095566   5.258204   4.821699   3.552465
    27  O    5.625982   6.019431   3.892724   5.900038   6.441945
    28  O    2.500049   3.255746   6.200769   6.783283   5.685297
    29  O    4.511027   4.801584   5.675170   7.021537   6.756352
    30  H    6.339559   6.858254   4.306491   6.453729   7.089374
    31  H    2.987017   3.830953   7.111824   7.680516   6.448455
    32  H    4.840174   4.835533   5.870806   7.175705   6.999167
    33  H    5.212752   5.618325   2.999942   4.951516   5.565632
    34  H    4.846654   5.202021   4.921890   6.520550   6.551483
    35  H    3.497509   3.950704   5.794794   6.791738   6.148237
    36  H    1.354657   2.277859   5.973593   6.139600   4.743953
    37  O    5.755346   5.329147   6.568980   7.749345   7.705045
    38  H    6.267666   5.740698   6.273494   7.527566   7.759874
    39  H    6.449107   6.020970   7.504021   8.709308   8.615097
                   16         17         18         19         20
    16  H    0.000000
    17  H    3.809530   0.000000
    18  H    3.826118   2.388694   0.000000
    19  H    2.405377   3.049651   1.765474   0.000000
    20  H    4.998384   3.245122   2.394604   2.978820   0.000000
    21  H    4.044303   3.843172   2.911345   2.332209   1.763087
    22  H    4.952928   2.509372   3.565319   3.917162   2.365204
    23  H    4.562107   3.655183   4.234536   3.844560   2.822301
    24  H    4.671715   2.440696   4.625091   4.743656   4.510207
    25  H    4.425998   3.646169   5.341511   4.895198   4.873734
    26  H    3.528169   3.030263   4.926383   4.485977   5.290216
    27  O    2.988274   6.602033   6.737288   5.250505   7.918912
    28  O    2.398139   4.386962   4.686554   3.267199   4.635636
    29  O    3.056753   6.173298   6.574684   5.004125   6.967776
    30  H    3.531894   7.249075   7.112777   5.585619   8.366556
    31  H    3.173655   4.909750   4.960759   3.551020   4.515207
    32  H    3.745376   6.534186   7.230423   5.760271   7.554637
    33  H    2.498297   5.919754   6.098168   4.759163   7.492696
    34  H    2.774866   6.249639   6.531703   4.951361   7.258622
    35  H    2.499224   5.266986   5.647851   4.119813   5.874459
    36  H    2.341587   3.288161   3.902002   2.799547   3.880005
    37  O    5.155751   7.419387   8.498943   7.180614   8.715711
    38  H    5.513386   7.756964   8.937358   7.673593   9.338181
    39  H    5.963159   8.214003   9.255439   7.899958   9.304841
                   21         22         23         24         25
    21  H    0.000000
    22  H    3.037259   0.000000
    23  H    2.410214   1.777307   0.000000
    24  H    4.809466   2.424579   3.244529   0.000000
    25  H    4.585066   2.904050   2.620342   1.788958   0.000000
    26  H    5.046129   3.639339   3.777147   1.790765   1.781256
    27  O    6.726327   7.713243   7.043440   6.960551   6.350263
    28  O    3.308048   4.199679   3.037484   4.292474   3.231177
    29  O    5.594364   6.442049   5.350052   5.888455   4.723480
    30  H    7.114049   8.386588   7.682172   7.795060   7.202296
    31  H    3.005578   4.294936   2.843339   4.809766   3.641871
    32  H    6.271149   6.741992   5.678392   5.904555   4.638778
    33  H    6.472972   7.292180   6.839814   6.471225   6.106221
    34  H    5.935509   6.880021   5.958586   6.245383   5.311107
    35  H    4.521227   5.366643   4.250592   5.040739   3.889227
    36  H    2.913622   3.186998   2.376808   3.243484   2.490137
    37  O    7.574044   7.520742   6.536434   6.297137   4.956454
    38  H    8.272078   8.088141   7.251861   6.642678   5.471193
    39  H    8.099079   8.102975   6.990012   6.984016   5.515205
                   26         27         28         29         30
    26  H    0.000000
    27  O    5.340838   0.000000
    28  O    3.377003   4.151427   0.000000
    29  O    4.395362   2.556847   2.402910   0.000000
    30  H    6.227752   0.959943   4.766999   3.206731   0.000000
    31  H    4.142456   4.841139   0.959486   2.921015   5.354758
    32  H    4.334591   3.011932   2.972177   0.986293   3.750567
    33  H    4.902249   0.992963   4.164998   3.064350   1.581918
    34  H    4.666848   1.548374   2.962765   1.010665   2.224184
    35  H    3.738345   3.183086   1.281457   1.122468   3.840740
    36  H    2.569554   4.692650   1.146472   3.289143   5.373305
    37  O    4.733280   4.247372   4.297328   2.667883   5.018203
    38  H    5.000895   4.299900   5.006790   3.272166   5.076222
    39  H    5.520892   4.975614   4.858167   3.243815   5.662528
                   31         32         33         34         35
    31  H    0.000000
    32  H    3.505827   0.000000
    33  H    4.950722   3.520707   0.000000
    34  H    3.581826   1.634833   2.139469   0.000000
    35  H    1.891927   1.774975   3.417912   1.795748   0.000000
    36  H    1.758483   3.728175   4.472683   3.716479   2.213684
    37  O    4.801670   1.681716   4.711492   3.168085   3.290579
    38  H    5.604483   2.326436   4.716574   3.527265   3.973397
    39  H    5.214101   2.309198   5.537365   3.835916   3.878419
                   36         37         38         39
    36  H    0.000000
    37  O    4.856504   0.000000
    38  H    5.471051   0.961911   0.000000
    39  H    5.503759   0.962067   1.534965   0.000000
 Stoichiometry    C10H23N2O4(1+)
 Framework group  C1[X(C10H23N2O4)]
 Deg. of freedom   111
 Full point group                 C1      NOp   1
 Largest Abelian subgroup         C1      NOp   1
 Largest concise Abelian subgroup C1      NOp   1
                         Standard orientation:                         
 ---------------------------------------------------------------------
 Center     Atomic      Atomic             Coordinates (Angstroms)
 Number     Number       Type             X           Y           Z
 ---------------------------------------------------------------------
      1          7           0       -1.223930    2.067463   -0.542559
      2          6           0       -1.074483    3.179555    0.185541
      3          6           0        0.079279    3.445564    0.915026
      4          6           0        1.108367    2.508200    0.898229
      5          6           0        0.969076    1.345484    0.140277
      6          6           0       -0.220811    1.186982   -0.571076
      7          6           0        2.057766    0.302616    0.094437
      8          6           0        2.638409   -0.015311   -1.290766
      9          6           0        3.194269   -1.453588   -1.157758
     10          6           0        2.755271   -1.916175    0.240398
     11          7           0        1.616280   -1.033750    0.579024
     12          6           0        1.259068   -1.063313    1.999814
     13          1           0       -1.911456    3.877974    0.183254
     14          1           0        0.163410    4.364960    1.491131
     15          1           0        2.018703    2.683326    1.473131
     16          1           0       -0.382285    0.303662   -1.190078
     17          1           0        2.874009    0.633958    0.759274
     18          1           0        3.402541    0.717051   -1.568731
     19          1           0        1.848067    0.031385   -2.048700
     20          1           0        4.284017   -1.486766   -1.252000
     21          1           0        2.780879   -2.103223   -1.936860
     22          1           0        3.556868   -1.770543    0.980692
     23          1           0        2.437111   -2.964276    0.287897
     24          1           0        2.104419   -0.738505    2.625038
     25          1           0        0.978234   -2.084719    2.278939
     26          1           0        0.403813   -0.401753    2.176287
     27          8           0       -3.334032    0.662472   -1.487112
     28          8           0       -0.284558   -2.040769   -0.694936
     29          8           0       -2.659734   -1.676914   -0.706048
     30          1           0       -3.663986    0.878801   -2.362225
     31          1           0       -0.019393   -2.848768   -1.139276
     32          1           0       -3.131770   -1.864436    0.139405
     33          1           0       -2.654433    1.341332   -1.235579
     34          1           0       -2.936835   -0.772248   -1.061347
     35          1           0       -1.550310   -1.842829   -0.666234
     36          1           0        0.573807   -1.545711   -0.118287
     37          8           0       -3.926770   -2.216458    1.578927
     38          1           0       -4.460836   -1.550934    2.022914
     39          1           0       -4.417542   -3.040455    1.654715
 ---------------------------------------------------------------------
 Rotational constants (GHZ):           0.4616038           0.3534111           0.2526912
 Standard basis: Aug-CC-pVDZ (5D, 7F)
 There are   607 symmetry adapted cartesian basis functions of A   symmetry.
 There are   575 symmetry adapted basis functions of A   symmetry.
   575 basis functions,   941 primitive gaussians,   607 cartesian basis functions
    64 alpha electrons       64 beta electrons
       nuclear repulsion energy      1238.9750767968 Hartrees.
 NAtoms=   39 NActive=   39 NUniq=   39 SFac= 1.00D+00 NAtFMM=   60 NAOKFM=F Big=F
 Integral buffers will be    131072 words long.
 Raffenetti 2 integral format.
 Two-electron integral symmetry is turned on.
 Nuclear repulsion after empirical dispersion term =     1238.9446820380 Hartrees.
 One-electron integrals computed using PRISM.
 NBasis=   575 RedAO= T EigKep=  2.05D-06  NBF=   575
 NBsUse=   575 1.00D-06 EigRej= -1.00D+00 NBFU=   575
 ExpMin= 2.97D-02 ExpMax= 1.17D+04 ExpMxC= 4.01D+02 IAcc=3 IRadAn=         5 AccDes= 0.00D+00
 Harris functional with IExCor= 4639 and IRadAn=       5 diagonalized for initial guess.
 HarFok:  IExCor= 4639 AccDes= 0.00D+00 IRadAn=         5 IDoV= 1 UseB2=F ITyADJ=14
 ICtDFT=  3500011 ScaDFX=  1.000000  1.000000  1.000000  1.000000
 FoFCou: FMM=F IPFlag=           0 FMFlag=      100000 FMFlg1=           0
         NFxFlg=           0 DoJE=T BraDBF=F KetDBF=T FulRan=T
         wScrn=  0.000000 ICntrl=       500 IOpCl=  0 I1Cent=   200000004 NGrid=           0
         NMat0=    1 NMatS0=      1 NMatT0=    0 NMatD0=    1 NMtDS0=    0 NMtDT0=    0
 Petite list used in FoFCou.
 Requested convergence on RMS density matrix=1.00D-08 within 128 cycles.
 Requested convergence on MAX density matrix=1.00D-06.
 Requested convergence on             energy=1.00D-06.
 No special actions if energy rises.
 SCF Done:  E(RwB97XD) =  -805.019852175     A.U. after   16 cycles
            NFock= 16  Conv=0.15D-08     -V/T= 2.0062
 DoSCS=F DFT=T ScalE2(SS,OS)=  1.000000  1.000000
 Range of M.O.s used for correlation:     1   575
 NBasis=   575 NAE=    64 NBE=    64 NFC=     0 NFV=     0
 NROrb=    575 NOA=    64 NOB=    64 NVA=   511 NVB=   511

 **** Warning!!: The largest alpha MO coefficient is  0.10506209D+03

 Symmetrizing basis deriv contribution to polar:
 IMax=3 JMax=2 DiffMx= 0.00D+00
 G2DrvN: will do    40 centers at a time, making    1 passes.
 Calling FoFCou, ICntrl=  3107 FMM=F I1Cent=   0 AccDes= 0.00D+00.
 End of G2Drv F.D. properties file   721 does not exist.
 End of G2Drv F.D. properties file   722 does not exist.
 End of G2Drv F.D. properties file   788 does not exist.
          IDoAtm=111111111111111111111111111111111111111
          Differentiating once with respect to electric field.
                with respect to dipole field.
          Differentiating once with respect to nuclear coordinates.
 CalDSu exits because no D1Ps are significant.
          There are   120 degrees of freedom in the 1st order CPHF.  IDoFFX=6 NUNeed=     3.
    117 vectors produced by pass  0 Test12= 3.27D-14 1.00D-09 XBig12= 7.15D+01 3.52D+00.
 AX will form   117 AO Fock derivatives at one time.
    117 vectors produced by pass  1 Test12= 3.27D-14 1.00D-09 XBig12= 1.07D+01 7.82D-01.
    117 vectors produced by pass  2 Test12= 3.27D-14 1.00D-09 XBig12= 2.43D-01 8.54D-02.
    117 vectors produced by pass  3 Test12= 3.27D-14 1.00D-09 XBig12= 2.19D-03 5.62D-03.
    117 vectors produced by pass  4 Test12= 3.27D-14 1.00D-09 XBig12= 2.03D-05 4.06D-04.
    117 vectors produced by pass  5 Test12= 3.27D-14 1.00D-09 XBig12= 1.42D-07 2.88D-05.
    114 vectors produced by pass  6 Test12= 3.27D-14 1.00D-09 XBig12= 8.07D-10 2.12D-06.
     45 vectors produced by pass  7 Test12= 3.27D-14 1.00D-09 XBig12= 3.94D-12 1.06D-07.
      3 vectors produced by pass  8 Test12= 3.27D-14 1.00D-09 XBig12= 2.20D-14 7.32D-09.
      3 vectors produced by pass  9 Test12= 3.27D-14 1.00D-09 XBig12= 2.47D-15 3.73D-09.
 InvSVY:  IOpt=1 It=  1 EMax= 2.49D-14
 Solved reduced A of dimension   867 with   120 vectors.
 Isotropic polarizability for W=    0.000000      162.45 Bohr**3.
 End of Minotr F.D. properties file   721 does not exist.
 End of Minotr F.D. properties file   722 does not exist.
 End of Minotr F.D. properties file   788 does not exist.

 **********************************************************************

            Population analysis using the SCF density.

 **********************************************************************

 Orbital symmetries:
       Occupied  (A) (A) (A) (A) (A) (A) (A) (A) (A) (A) (A) (A)
                 (A) (A) (A) (A) (A) (A) (A) (A) (A) (A) (A) (A)
                 (A) (A) (A) (A) (A) (A) (A) (A) (A) (A) (A) (A)
                 (A) (A) (A) (A) (A) (A) (A) (A) (A) (A) (A) (A)
                 (A) (A) (A) (A) (A) (A) (A) (A) (A) (A) (A) (A)
                 (A) (A) (A) (A)
       Virtual   (A) (A) (A) (A) (A) (A) (A) (A) (A) (A) (A) (A)
                 (A) (A) (A) (A) (A) (A) (A) (A) (A) (A) (A) (A)
                 (A) (A) (A) (A) (A) (A) (A) (A) (A) (A) (A) (A)
                 (A) (A) (A) (A) (A) (A) (A) (A) (A) (A) (A) (A)
                 (A) (A) (A) (A) (A) (A) (A) (A) (A) (A) (A) (A)
                 (A) (A) (A) (A) (A) (A) (A) (A) (A) (A) (A) (A)
                 (A) (A) (A) (A) (A) (A) (A) (A) (A) (A) (A) (A)
                 (A) (A) (A) (A) (A) (A) (A) (A) (A) (A) (A) (A)
                 (A) (A) (A) (A) (A) (A) (A) (A) (A) (A) (A) (A)
                 (A) (A) (A) (A) (A) (A) (A) (A) (A) (A) (A) (A)
                 (A) (A) (A) (A) (A) (A) (A) (A) (A) (A) (A) (A)
                 (A) (A) (A) (A) (A) (A) (A) (A) (A) (A) (A) (A)
                 (A) (A) (A) (A) (A) (A) (A) (A) (A) (A) (A) (A)
                 (A) (A) (A) (A) (A) (A) (A) (A) (A) (A) (A) (A)
                 (A) (A) (A) (A) (A) (A) (A) (A) (A) (A) (A) (A)
                 (A) (A) (A) (A) (A) (A) (A) (A) (A) (A) (A) (A)
                 (A) (A) (A) (A) (A) (A) (A) (A) (A) (A) (A) (A)
                 (A) (A) (A) (A) (A) (A) (A) (A) (A) (A) (A) (A)
                 (A) (A) (A) (A) (A) (A) (A) (A) (A) (A) (A) (A)
                 (A) (A) (A) (A) (A) (A) (A) (A) (A) (A) (A) (A)
                 (A) (A) (A) (A) (A) (A) (A) (A) (A) (A) (A) (A)
                 (A) (A) (A) (A) (A) (A) (A) (A) (A) (A) (A) (A)
                 (A) (A) (A) (A) (A) (A) (A) (A) (A) (A) (A) (A)
                 (A) (A) (A) (A) (A) (A) (A) (A) (A) (A) (A) (A)
                 (A) (A) (A) (A) (A) (A) (A) (A) (A) (A) (A) (A)
                 (A) (A) (A) (A) (A) (A) (A) (A) (A) (A) (A) (A)
                 (A) (A) (A) (A) (A) (A) (A) (A) (A) (A) (A) (A)
                 (A) (A) (A) (A) (A) (A) (A) (A) (A) (A) (A) (A)
                 (A) (A) (A) (A) (A) (A) (A) (A) (A) (A) (A) (A)
                 (A) (A) (A) (A) (A) (A) (A) (A) (A) (A) (A) (A)
                 (A) (A) (A) (A) (A) (A) (A) (A) (A) (A) (A) (A)
                 (A) (A) (A) (A) (A) (A) (A) (A) (A) (A) (A) (A)
                 (A) (A) (A) (A) (A) (A) (A) (A) (A) (A) (A) (A)
                 (A) (A) (A) (A) (A) (A) (A) (A) (A) (A) (A) (A)
                 (A) (A) (A) (A) (A) (A) (A) (A) (A) (A) (A) (A)
                 (A) (A) (A) (A) (A) (A) (A) (A) (A) (A) (A) (A)
                 (A) (A) (A) (A) (A) (A) (A) (A) (A) (A) (A) (A)
                 (A) (A) (A) (A) (A) (A) (A) (A) (A) (A) (A) (A)
                 (A) (A) (A) (A) (A) (A) (A) (A) (A) (A) (A) (A)
                 (A) (A) (A) (A) (A) (A) (A) (A) (A) (A) (A) (A)
                 (A) (A) (A) (A) (A) (A) (A) (A) (A) (A) (A) (A)
                 (A) (A) (A) (A) (A) (A) (A) (A) (A) (A) (A) (A)
                 (A) (A) (A) (A) (A) (A) (A)
 The electronic state is 1-A.
 Alpha  occ. eigenvalues --  -19.42225 -19.42164 -19.38708 -19.38680 -14.61245
 Alpha  occ. eigenvalues --  -14.58251 -10.46547 -10.45835 -10.45670 -10.45028
 Alpha  occ. eigenvalues --  -10.44566 -10.44108 -10.44002 -10.42833 -10.41674
 Alpha  occ. eigenvalues --  -10.41503  -1.28436  -1.26235  -1.23047  -1.22332
 Alpha  occ. eigenvalues --   -1.19118  -1.17656  -1.04496  -1.01708  -1.00007
 Alpha  occ. eigenvalues --   -0.94711  -0.90659  -0.86172  -0.84823  -0.81654
 Alpha  occ. eigenvalues --   -0.80538  -0.78519  -0.78221  -0.76763  -0.76378
 Alpha  occ. eigenvalues --   -0.74099  -0.72394  -0.71724  -0.70440  -0.69564
 Alpha  occ. eigenvalues --   -0.66819  -0.65635  -0.65076  -0.64404  -0.62876
 Alpha  occ. eigenvalues --   -0.61841  -0.61711  -0.61002  -0.60188  -0.59718
 Alpha  occ. eigenvalues --   -0.58509  -0.58000  -0.56885  -0.56594  -0.55353
 Alpha  occ. eigenvalues --   -0.55157  -0.54877  -0.53117  -0.52869  -0.52549
 Alpha  occ. eigenvalues --   -0.49071  -0.48128  -0.47429  -0.45842
 Alpha virt. eigenvalues --   -0.08925  -0.07741  -0.06750  -0.05337  -0.04922
 Alpha virt. eigenvalues --   -0.04488  -0.03605  -0.03064  -0.02786  -0.02484
 Alpha virt. eigenvalues --   -0.02128  -0.01472  -0.01010  -0.00847  -0.00389
 Alpha virt. eigenvalues --   -0.00039   0.00263   0.01005   0.01160   0.01618
 Alpha virt. eigenvalues --    0.01787   0.02303   0.02476   0.02819   0.03018
 Alpha virt. eigenvalues --    0.03417   0.03857   0.04551   0.04992   0.05104
 Alpha virt. eigenvalues --    0.05347   0.05488   0.05695   0.06027   0.06415
 Alpha virt. eigenvalues --    0.06542   0.06795   0.06992   0.07163   0.07485
 Alpha virt. eigenvalues --    0.07867   0.07947   0.08281   0.08553   0.08589
 Alpha virt. eigenvalues --    0.09010   0.09211   0.09582   0.10034   0.10347
 Alpha virt. eigenvalues --    0.10691   0.11012   0.11153   0.11636   0.11957
 Alpha virt. eigenvalues --    0.12063   0.12402   0.12542   0.12806   0.13594
 Alpha virt. eigenvalues --    0.13723   0.13798   0.14194   0.14574   0.14923
 Alpha virt. eigenvalues --    0.15186   0.15370   0.15905   0.16315   0.16431
 Alpha virt. eigenvalues --    0.16646   0.16928   0.17038   0.17326   0.17773
 Alpha virt. eigenvalues --    0.18493   0.18537   0.18711   0.18815   0.19078
 Alpha virt. eigenvalues --    0.19169   0.20086   0.20141   0.20341   0.20608
 Alpha virt. eigenvalues --    0.20940   0.21158   0.21490   0.21929   0.22476
 Alpha virt. eigenvalues --    0.22801   0.22895   0.23520   0.23766   0.24004
 Alpha virt. eigenvalues --    0.24380   0.24914   0.25275   0.25627   0.25937
 Alpha virt. eigenvalues --    0.25956   0.26468   0.26861   0.27104   0.27338
 Alpha virt. eigenvalues --    0.27625   0.28305   0.28370   0.28632   0.29397
 Alpha virt. eigenvalues --    0.29453   0.29931   0.30102   0.30625   0.31000
 Alpha virt. eigenvalues --    0.31211   0.31646   0.32101   0.32603   0.32798
 Alpha virt. eigenvalues --    0.33172   0.33519   0.34046   0.34374   0.35100
 Alpha virt. eigenvalues --    0.35354   0.35880   0.35931   0.36620   0.37202
 Alpha virt. eigenvalues --    0.37646   0.38109   0.38226   0.38778   0.38895
 Alpha virt. eigenvalues --    0.39453   0.39744   0.40238   0.40563   0.40756
 Alpha virt. eigenvalues --    0.41293   0.41540   0.42200   0.42781   0.42891
 Alpha virt. eigenvalues --    0.43406   0.43631   0.44242   0.44298   0.44660
 Alpha virt. eigenvalues --    0.45268   0.45479   0.46186   0.46633   0.47301
 Alpha virt. eigenvalues --    0.47530   0.47879   0.48097   0.48556   0.49257
 Alpha virt. eigenvalues --    0.49452   0.49763   0.50137   0.50391   0.51059
 Alpha virt. eigenvalues --    0.51231   0.51308   0.51786   0.51996   0.52487
 Alpha virt. eigenvalues --    0.52771   0.53270   0.53510   0.54073   0.54379
 Alpha virt. eigenvalues --    0.54511   0.55001   0.55158   0.55395   0.56155
 Alpha virt. eigenvalues --    0.56299   0.56587   0.57958   0.58420   0.58565
 Alpha virt. eigenvalues --    0.58735   0.59527   0.59558   0.60465   0.60842
 Alpha virt. eigenvalues --    0.61041   0.61159   0.62022   0.62255   0.62585
 Alpha virt. eigenvalues --    0.63236   0.63615   0.63856   0.64243   0.64615
 Alpha virt. eigenvalues --    0.64851   0.66129   0.66571   0.67162   0.67401
 Alpha virt. eigenvalues --    0.67842   0.68334   0.68695   0.69016   0.69595
 Alpha virt. eigenvalues --    0.70316   0.70763   0.71110   0.71442   0.71535
 Alpha virt. eigenvalues --    0.71882   0.72375   0.72824   0.73230   0.73980
 Alpha virt. eigenvalues --    0.74522   0.75067   0.75314   0.75527   0.76432
 Alpha virt. eigenvalues --    0.76767   0.77578   0.78078   0.78558   0.79092
 Alpha virt. eigenvalues --    0.79292   0.79873   0.80393   0.81293   0.81606
 Alpha virt. eigenvalues --    0.82342   0.82602   0.83526   0.83694   0.84969
 Alpha virt. eigenvalues --    0.85011   0.85697   0.86099   0.86645   0.87561
 Alpha virt. eigenvalues --    0.88155   0.89100   0.89734   0.90586   0.91374
 Alpha virt. eigenvalues --    0.91698   0.92225   0.93002   0.93300   0.94688
 Alpha virt. eigenvalues --    0.95150   0.95465   0.95581   0.96485   0.96921
 Alpha virt. eigenvalues --    0.98352   0.98559   0.99664   1.00695   1.01311
 Alpha virt. eigenvalues --    1.01749   1.02501   1.03386   1.03763   1.04994
 Alpha virt. eigenvalues --    1.05346   1.06656   1.07584   1.08138   1.09661
 Alpha virt. eigenvalues --    1.09943   1.11008   1.11830   1.12289   1.12707
 Alpha virt. eigenvalues --    1.13641   1.14479   1.14804   1.16035   1.16763
 Alpha virt. eigenvalues --    1.17105   1.18278   1.18867   1.19586   1.20308
 Alpha virt. eigenvalues --    1.21615   1.22058   1.22593   1.22881   1.23582
 Alpha virt. eigenvalues --    1.24560   1.25610   1.27491   1.28348   1.29357
 Alpha virt. eigenvalues --    1.30728   1.31917   1.32863   1.33590   1.34305
 Alpha virt. eigenvalues --    1.34684   1.35877   1.37143   1.37527   1.37582
 Alpha virt. eigenvalues --    1.39000   1.39831   1.41238   1.41861   1.42988
 Alpha virt. eigenvalues --    1.43363   1.44286   1.44974   1.46727   1.47838
 Alpha virt. eigenvalues --    1.48873   1.49453   1.49780   1.49975   1.50187
 Alpha virt. eigenvalues --    1.52023   1.53642   1.54564   1.55314   1.55652
 Alpha virt. eigenvalues --    1.57286   1.57684   1.58574   1.59924   1.60051
 Alpha virt. eigenvalues --    1.60621   1.62292   1.63180   1.63585   1.63766
 Alpha virt. eigenvalues --    1.64899   1.65882   1.66449   1.67931   1.68442
 Alpha virt. eigenvalues --    1.69073   1.69913   1.70413   1.71075   1.71322
 Alpha virt. eigenvalues --    1.71974   1.72830   1.73415   1.73629   1.74653
 Alpha virt. eigenvalues --    1.75651   1.76374   1.76929   1.78830   1.79761
 Alpha virt. eigenvalues --    1.80857   1.81400   1.82053   1.82452   1.82934
 Alpha virt. eigenvalues --    1.83563   1.84995   1.85215   1.85830   1.86537
 Alpha virt. eigenvalues --    1.86922   1.87571   1.88594   1.88779   1.90113
 Alpha virt. eigenvalues --    1.90508   1.91567   1.93621   1.94214   1.94604
 Alpha virt. eigenvalues --    1.95201   1.96093   1.97253   1.98551   1.99432
 Alpha virt. eigenvalues --    2.00214   2.00316   2.01249   2.01603   2.02991
 Alpha virt. eigenvalues --    2.03297   2.04806   2.07014   2.07167   2.09293
 Alpha virt. eigenvalues --    2.09631   2.10924   2.11195   2.12153   2.12674
 Alpha virt. eigenvalues --    2.12850   2.13513   2.15099   2.15143   2.16841
 Alpha virt. eigenvalues --    2.17286   2.18736   2.18843   2.19298   2.21190
 Alpha virt. eigenvalues --    2.22325   2.23438   2.24957   2.26236   2.26942
 Alpha virt. eigenvalues --    2.27329   2.27869   2.29211   2.29446   2.31352
 Alpha virt. eigenvalues --    2.31664   2.33139   2.33768   2.35583   2.36446
 Alpha virt. eigenvalues --    2.37557   2.38813   2.39823   2.41368   2.42913
 Alpha virt. eigenvalues --    2.43700   2.45113   2.45321   2.46569   2.47184
 Alpha virt. eigenvalues --    2.48849   2.50955   2.51649   2.51896   2.54597
 Alpha virt. eigenvalues --    2.55665   2.56005   2.56584   2.58007   2.58754
 Alpha virt. eigenvalues --    2.59118   2.60358   2.62141   2.62501   2.63777
 Alpha virt. eigenvalues --    2.64250   2.65714   2.68013   2.68076   2.69166
 Alpha virt. eigenvalues --    2.70633   2.71502   2.72066   2.73689   2.74431
 Alpha virt. eigenvalues --    2.75772   2.78266   2.79680   2.80896   2.82864
 Alpha virt. eigenvalues --    2.83652   2.84563   2.85679   2.86652   2.89319
 Alpha virt. eigenvalues --    2.90153   2.92273   2.93101   2.93898   2.94818
 Alpha virt. eigenvalues --    2.98158   3.00925   3.02040   3.05470   3.07616
 Alpha virt. eigenvalues --    3.10393   3.14694   3.17761   3.21103   3.28489
 Alpha virt. eigenvalues --    3.29228   3.31498   3.34283   3.37650   3.38666
 Alpha virt. eigenvalues --    3.39208   3.40492   3.43163   3.44374   3.46119
 Alpha virt. eigenvalues --    3.46512   3.51214   3.57686   3.65297   3.67008
 Alpha virt. eigenvalues --    3.73094   3.83017   3.89356   3.91370   3.95715
 Alpha virt. eigenvalues --    4.01443   4.09397   4.10246   4.26926   4.34909
 Alpha virt. eigenvalues --    4.94809
          Condensed to atoms (all electrons):
               1          2          3          4          5          6
     1  N    7.904947   0.093154   0.358665  -0.572137  -0.229153  -0.516299
     2  C    0.093154  10.001174  -2.589906   1.636250  -1.139605  -0.942347
     3  C    0.358665  -2.589906  11.593576  -4.249514   0.607493  -0.464164
     4  C   -0.572137   1.636250  -4.249514  22.187512  -8.425676  -1.744295
     5  C   -0.229153  -1.139605   0.607493  -8.425676  23.657849  -4.014155
     6  C   -0.516299  -0.942347  -0.464164  -1.744295  -4.014155  16.677478
     7  C    0.732579  -1.007044   0.760279  -1.536688  -9.517417  -1.436100
     8  C   -0.010430  -0.116523   0.005612  -0.069505   0.155019  -0.883114
     9  C    0.012992   0.007858  -0.017970  -0.055125   0.338752   0.004117
    10  C    0.038256  -0.024027  -0.011553  -0.000797  -0.364856  -0.158033
    11  N   -0.068319   0.087980  -0.158389  -0.503495   2.058218  -0.052660
    12  C   -0.020191  -0.029708   0.082920  -0.218754   0.712084  -0.086212
    13  H   -0.142815  -0.463444   0.065855   0.228810  -0.042416   0.107194
    14  H   -0.074334   0.386717  -1.172949   0.624615  -0.111729   0.033830
    15  H   -0.044087  -0.199431   0.646422  -2.474430   1.209314   0.156849
    16  H   -0.036786  -0.094085   0.091491  -0.203472  -0.718933  -1.137269
    17  H    0.007580   0.047671  -0.036133   0.064696   0.926954  -0.213016
    18  H   -0.021764   0.005304   0.000222  -0.036922   0.469130   0.306148
    19  H    0.037199   0.010499  -0.032054   0.045585  -0.013210  -0.225311
    20  H   -0.000929   0.003423  -0.004632  -0.000881   0.005280   0.024115
    21  H    0.001265  -0.003709   0.002070   0.005371  -0.130959  -0.029270
    22  H   -0.001441  -0.002266   0.004133   0.021957   0.168765   0.015749
    23  H    0.002344   0.000547  -0.001167   0.023423  -0.180400  -0.006082
    24  H   -0.002233   0.018103  -0.029104   0.042968   0.189337   0.003386
    25  H   -0.000185  -0.005269   0.014380  -0.018193  -0.053763  -0.032703
    26  H   -0.005677  -0.030361   0.054849  -0.020141   0.068033   0.097181
    27  O   -0.048407   0.038511  -0.012998   0.021626  -0.091708  -0.006811
    28  O   -0.001820  -0.005745   0.005568  -0.015980  -0.012391  -0.102111
    29  O    0.018588   0.023240  -0.010472  -0.006165   0.038056  -0.113556
    30  H   -0.001925  -0.013411   0.007753  -0.004324   0.006487   0.002002
    31  H   -0.002844   0.002178  -0.000397   0.004900   0.019768   0.030932
    32  H   -0.001107   0.002954  -0.000236   0.000253  -0.004977   0.015147
    33  H    0.146235   0.080813  -0.062074   0.027142  -0.011400  -0.133806
    34  H   -0.008220  -0.004535   0.001566   0.001087   0.009141  -0.002236
    35  H    0.011675  -0.005541  -0.000407  -0.017286   0.013016  -0.048597
    36  H    0.009227  -0.022461   0.008911   0.013278  -0.306154  -0.129242
    37  O    0.000040   0.000165   0.000197  -0.001306  -0.001870   0.005382
    38  H    0.000247  -0.001034   0.000972  -0.000742  -0.000564   0.000038
    39  H   -0.000041   0.000134  -0.000217   0.000035   0.000858  -0.000052
               7          8          9         10         11         12
     1  N    0.732579  -0.010430   0.012992   0.038256  -0.068319  -0.020191
     2  C   -1.007044  -0.116523   0.007858  -0.024027   0.087980  -0.029708
     3  C    0.760279   0.005612  -0.017970  -0.011553  -0.158389   0.082920
     4  C   -1.536688  -0.069505  -0.055125  -0.000797  -0.503495  -0.218754
     5  C   -9.517417   0.155019   0.338752  -0.364856   2.058218   0.712084
     6  C   -1.436100  -0.883114   0.004117  -0.158033  -0.052660  -0.086212
     7  C   27.199805  -1.527147   0.049979  -0.344392  -6.634393  -1.189056
     8  C   -1.527147   8.421811  -0.872906   0.665929  -0.824948  -0.162109
     9  C    0.049979  -0.872906   6.199717   0.058186  -0.491119  -0.018615
    10  C   -0.344392   0.665929   0.058186   5.714166  -0.252793  -0.168984
    11  N   -6.634393  -0.824948  -0.491119  -0.252793  19.506538   1.425627
    12  C   -1.189056  -0.162109  -0.018615  -0.168984   1.425627   4.846420
    13  H   -0.034742   0.002859   0.000393  -0.000969   0.004909   0.003436
    14  H    0.040562   0.000808   0.000363   0.000016  -0.001919  -0.010176
    15  H   -0.152220  -0.075788  -0.001852  -0.004644   0.020630   0.058742
    16  H    0.181801   0.043051   0.006536   0.007673  -0.213668   0.043785
    17  H   -2.692929   0.741132  -0.061658   0.079294  -0.805601  -0.155371
    18  H   -0.055277  -1.119318   0.166889  -0.205626   0.343023   0.082430
    19  H   -0.138517  -0.058377   0.309199   0.058280  -0.220907  -0.066337
    20  H   -0.154490   0.248713  -0.242641   0.215521  -0.128731  -0.019455
    21  H    0.370934   0.184196  -0.378200  -0.045497   0.061303   0.011367
    22  H    0.202199   0.002985  -0.019539  -0.371893  -0.395579  -0.019549
    23  H    0.615528   0.070913   0.127684  -0.119663  -1.680488  -0.187422
    24  H   -0.308038   0.069702  -0.006017   0.143186  -0.637105   0.281045
    25  H    0.215877  -0.083863   0.078102   0.020845  -0.342166   0.132856
    26  H    0.010478   0.080437  -0.045266  -0.086875  -0.058198  -0.010163
    27  O    0.006808  -0.002654  -0.001376   0.000167  -0.000382  -0.000476
    28  O    0.045938   0.031018   0.027082   0.018531  -0.211275  -0.027604
    29  O   -0.031244   0.003656   0.001150   0.003687  -0.039387   0.013609
    30  H   -0.004188   0.000995   0.000258   0.000054   0.001597   0.000454
    31  H   -0.084869   0.025533  -0.021629   0.025785   0.044124   0.026944
    32  H   -0.011800  -0.005465   0.000205  -0.001549   0.003498   0.002896
    33  H    0.030752  -0.008561  -0.001020  -0.000325  -0.007940  -0.006065
    34  H    0.002203   0.007762  -0.002816   0.000441   0.001782  -0.000995
    35  H    0.073579  -0.001394   0.020128   0.004546  -0.028814  -0.024611
    36  H    0.933672   0.012970   0.036982  -0.197521  -0.940954  -0.299399
    37  O    0.001940  -0.000115  -0.000106   0.000067   0.002042  -0.000513
    38  H    0.000797   0.000013  -0.000043   0.000103   0.000281  -0.000388
    39  H   -0.000062   0.000052   0.000021  -0.000071  -0.000123   0.000234
              13         14         15         16         17         18
     1  N   -0.142815  -0.074334  -0.044087  -0.036786   0.007580  -0.021764
     2  C   -0.463444   0.386717  -0.199431  -0.094085   0.047671   0.005304
     3  C    0.065855  -1.172949   0.646422   0.091491  -0.036133   0.000222
     4  C    0.228810   0.624615  -2.474430  -0.203472   0.064696  -0.036922
     5  C   -0.042416  -0.111729   1.209314  -0.718933   0.926954   0.469130
     6  C    0.107194   0.033830   0.156849  -1.137269  -0.213016   0.306148
     7  C   -0.034742   0.040562  -0.152220   0.181801  -2.692929  -0.055277
     8  C    0.002859   0.000808  -0.075788   0.043051   0.741132  -1.119318
     9  C    0.000393   0.000363  -0.001852   0.006536  -0.061658   0.166889
    10  C   -0.000969   0.000016  -0.004644   0.007673   0.079294  -0.205626
    11  N    0.004909  -0.001919   0.020630  -0.213668  -0.805601   0.343023
    12  C    0.003436  -0.010176   0.058742   0.043785  -0.155371   0.082430
    13  H    2.030735  -0.119213  -0.004080   0.010417   0.000585   0.001544
    14  H   -0.119213   2.148985  -0.145559  -0.008485   0.001844  -0.002684
    15  H   -0.004080  -0.145559   3.099874   0.000096  -0.174852   0.016318
    16  H    0.010417  -0.008485   0.000096   4.401916  -0.048363   0.094157
    17  H    0.000585   0.001844  -0.174852  -0.048363   3.997548  -0.340808
    18  H    0.001544  -0.002684   0.016318   0.094157  -0.340808   2.686409
    19  H   -0.001466   0.001452  -0.010022  -0.178332   0.257948  -0.727992
    20  H    0.000099  -0.000076   0.002654  -0.010315   0.075697  -0.298527
    21  H   -0.000097   0.000049  -0.001208   0.028777  -0.057866   0.168704
    22  H    0.000043  -0.000383   0.001538   0.015513  -0.102743   0.069768
    23  H   -0.000051   0.000095  -0.003183  -0.030960   0.126988  -0.044677
    24  H    0.000541  -0.000251   0.007713   0.003381   0.067193   0.009022
    25  H    0.000452  -0.001132   0.003523   0.003875   0.016657   0.002681
    26  H   -0.003658  -0.000412  -0.004123   0.003630   0.033439   0.000658
    27  O    0.004567  -0.000082   0.000251  -0.002858  -0.000023   0.000097
    28  O    0.000181   0.000067  -0.000875   0.023365  -0.005471   0.003856
    29  O    0.001134  -0.000420   0.000165   0.059135  -0.001438   0.000383
    30  H    0.003260  -0.000377   0.000222   0.002393  -0.000149   0.000003
    31  H    0.000194  -0.000139   0.001225  -0.002120  -0.002365   0.003119
    32  H    0.000450  -0.000134   0.000667   0.004782  -0.000902   0.000595
    33  H   -0.058424   0.007750  -0.002507  -0.028276  -0.000301  -0.000476
    34  H    0.001260  -0.000137  -0.000453  -0.007991   0.000527  -0.000627
    35  H   -0.002675   0.000959  -0.002900  -0.021087   0.003591  -0.003389
    36  H    0.000261   0.000954  -0.009119  -0.013665   0.074403  -0.039831
    37  O   -0.000035   0.000007  -0.000052  -0.005387   0.000183  -0.000016
    38  H   -0.000014   0.000003  -0.000015  -0.000924   0.000041  -0.000005
    39  H    0.000001   0.000001  -0.000014  -0.000478   0.000011  -0.000005
              19         20         21         22         23         24
     1  N    0.037199  -0.000929   0.001265  -0.001441   0.002344  -0.002233
     2  C    0.010499   0.003423  -0.003709  -0.002266   0.000547   0.018103
     3  C   -0.032054  -0.004632   0.002070   0.004133  -0.001167  -0.029104
     4  C    0.045585  -0.000881   0.005371   0.021957   0.023423   0.042968
     5  C   -0.013210   0.005280  -0.130959   0.168765  -0.180400   0.189337
     6  C   -0.225311   0.024115  -0.029270   0.015749  -0.006082   0.003386
     7  C   -0.138517  -0.154490   0.370934   0.202199   0.615528  -0.308038
     8  C   -0.058377   0.248713   0.184196   0.002985   0.070913   0.069702
     9  C    0.309199  -0.242641  -0.378200  -0.019539   0.127684  -0.006017
    10  C    0.058280   0.215521  -0.045497  -0.371893  -0.119663   0.143186
    11  N   -0.220907  -0.128731   0.061303  -0.395579  -1.680488  -0.637105
    12  C   -0.066337  -0.019455   0.011367  -0.019549  -0.187422   0.281045
    13  H   -0.001466   0.000099  -0.000097   0.000043  -0.000051   0.000541
    14  H    0.001452  -0.000076   0.000049  -0.000383   0.000095  -0.000251
    15  H   -0.010022   0.002654  -0.001208   0.001538  -0.003183   0.007713
    16  H   -0.178332  -0.010315   0.028777   0.015513  -0.030960   0.003381
    17  H    0.257948   0.075697  -0.057866  -0.102743   0.126988   0.067193
    18  H   -0.727992  -0.298527   0.168704   0.069768  -0.044677   0.009022
    19  H    2.394880   0.204667  -0.434005  -0.068799   0.075368   0.002363
    20  H    0.204667   2.053081  -0.592544  -0.275836   0.143452   0.004627
    21  H   -0.434005  -0.592544   2.208481   0.195937  -0.315047  -0.006341
    22  H   -0.068799  -0.275836   0.195937   2.601210  -0.605432   0.035292
    23  H    0.075368   0.143452  -0.315047  -0.605432   3.205565   0.037737
    24  H    0.002363   0.004627  -0.006341   0.035292   0.037737   2.108127
    25  H   -0.008536  -0.003112   0.011967   0.013948   0.010116  -0.383485
    26  H    0.006800   0.000094  -0.005843   0.014698   0.012574  -0.393244
    27  O    0.001376  -0.000074  -0.000278   0.000038   0.000066   0.000114
    28  O   -0.019964  -0.005225   0.008147  -0.020895   0.119707  -0.014898
    29  O   -0.001254  -0.000093   0.000654   0.000235   0.001445   0.000641
    30  H    0.000741   0.000011  -0.000052  -0.000002  -0.000035  -0.000039
    31  H    0.003844   0.000563  -0.001836   0.001093  -0.004543   0.007250
    32  H   -0.002879  -0.000103   0.000371   0.000466  -0.002182   0.000055
    33  H   -0.001082   0.000022   0.000062   0.000077   0.000703   0.000417
    34  H    0.003576   0.000065  -0.000482  -0.000053   0.000941   0.000443
    35  H    0.006994  -0.000006  -0.001454  -0.003467   0.004631  -0.003807
    36  H    0.067955   0.002424   0.018872   0.045381   0.176927  -0.076097
    37  O    0.000201   0.000007  -0.000099  -0.000070   0.000208  -0.000125
    38  H    0.000014  -0.000003   0.000003  -0.000020   0.000014  -0.000095
    39  H    0.000031   0.000008  -0.000019  -0.000009   0.000037   0.000079
              25         26         27         28         29         30
     1  N   -0.000185  -0.005677  -0.048407  -0.001820   0.018588  -0.001925
     2  C   -0.005269  -0.030361   0.038511  -0.005745   0.023240  -0.013411
     3  C    0.014380   0.054849  -0.012998   0.005568  -0.010472   0.007753
     4  C   -0.018193  -0.020141   0.021626  -0.015980  -0.006165  -0.004324
     5  C   -0.053763   0.068033  -0.091708  -0.012391   0.038056   0.006487
     6  C   -0.032703   0.097181  -0.006811  -0.102111  -0.113556   0.002002
     7  C    0.215877   0.010478   0.006808   0.045938  -0.031244  -0.004188
     8  C   -0.083863   0.080437  -0.002654   0.031018   0.003656   0.000995
     9  C    0.078102  -0.045266  -0.001376   0.027082   0.001150   0.000258
    10  C    0.020845  -0.086875   0.000167   0.018531   0.003687   0.000054
    11  N   -0.342166  -0.058198  -0.000382  -0.211275  -0.039387   0.001597
    12  C    0.132856  -0.010163  -0.000476  -0.027604   0.013609   0.000454
    13  H    0.000452  -0.003658   0.004567   0.000181   0.001134   0.003260
    14  H   -0.001132  -0.000412  -0.000082   0.000067  -0.000420  -0.000377
    15  H    0.003523  -0.004123   0.000251  -0.000875   0.000165   0.000222
    16  H    0.003875   0.003630  -0.002858   0.023365   0.059135   0.002393
    17  H    0.016657   0.033439  -0.000023  -0.005471  -0.001438  -0.000149
    18  H    0.002681   0.000658   0.000097   0.003856   0.000383   0.000003
    19  H   -0.008536   0.006800   0.001376  -0.019964  -0.001254   0.000741
    20  H   -0.003112   0.000094  -0.000074  -0.005225  -0.000093   0.000011
    21  H    0.011967  -0.005843  -0.000278   0.008147   0.000654  -0.000052
    22  H    0.013948   0.014698   0.000038  -0.020895   0.000235  -0.000002
    23  H    0.010116   0.012574   0.000066   0.119707   0.001445  -0.000035
    24  H   -0.383485  -0.393244   0.000114  -0.014898   0.000641  -0.000039
    25  H    2.107483  -0.620266  -0.000322   0.019062   0.003195   0.000054
    26  H   -0.620266   1.968813   0.000563   0.012619   0.002920   0.000144
    27  O   -0.000322   0.000563   8.013073   0.000010  -0.086320   0.385948
    28  O    0.019062   0.012619   0.000010   8.652208  -0.062031   0.000170
    29  O    0.003195   0.002920  -0.086320  -0.062031   8.182470   0.004357
    30  H    0.000054   0.000144   0.385948   0.000170   0.004357   0.568756
    31  H   -0.003848  -0.001628   0.001526   0.343394   0.015008  -0.000046
    32  H    0.000506  -0.000450   0.002399   0.005684   0.308063   0.000064
    33  H   -0.001068   0.000468   0.240744  -0.003334  -0.016829  -0.106637
    34  H   -0.000041  -0.001386   0.013084  -0.007049   0.229838  -0.004918
    35  H    0.003778   0.003445  -0.012484   0.063253   0.022687  -0.001063
    36  H    0.097338   0.018285  -0.004702  -0.114734  -0.047361  -0.000372
    37  O   -0.000071  -0.001391   0.000985  -0.001056  -0.076404   0.000585
    38  H   -0.000113   0.000015  -0.000221  -0.000147   0.001572   0.000047
    39  H   -0.000114   0.000496  -0.000023   0.000083   0.001451  -0.000080
              31         32         33         34         35         36
     1  N   -0.002844  -0.001107   0.146235  -0.008220   0.011675   0.009227
     2  C    0.002178   0.002954   0.080813  -0.004535  -0.005541  -0.022461
     3  C   -0.000397  -0.000236  -0.062074   0.001566  -0.000407   0.008911
     4  C    0.004900   0.000253   0.027142   0.001087  -0.017286   0.013278
     5  C    0.019768  -0.004977  -0.011400   0.009141   0.013016  -0.306154
     6  C    0.030932   0.015147  -0.133806  -0.002236  -0.048597  -0.129242
     7  C   -0.084869  -0.011800   0.030752   0.002203   0.073579   0.933672
     8  C    0.025533  -0.005465  -0.008561   0.007762  -0.001394   0.012970
     9  C   -0.021629   0.000205  -0.001020  -0.002816   0.020128   0.036982
    10  C    0.025785  -0.001549  -0.000325   0.000441   0.004546  -0.197521
    11  N    0.044124   0.003498  -0.007940   0.001782  -0.028814  -0.940954
    12  C    0.026944   0.002896  -0.006065  -0.000995  -0.024611  -0.299399
    13  H    0.000194   0.000450  -0.058424   0.001260  -0.002675   0.000261
    14  H   -0.000139  -0.000134   0.007750  -0.000137   0.000959   0.000954
    15  H    0.001225   0.000667  -0.002507  -0.000453  -0.002900  -0.009119
    16  H   -0.002120   0.004782  -0.028276  -0.007991  -0.021087  -0.013665
    17  H   -0.002365  -0.000902  -0.000301   0.000527   0.003591   0.074403
    18  H    0.003119   0.000595  -0.000476  -0.000627  -0.003389  -0.039831
    19  H    0.003844  -0.002879  -0.001082   0.003576   0.006994   0.067955
    20  H    0.000563  -0.000103   0.000022   0.000065  -0.000006   0.002424
    21  H   -0.001836   0.000371   0.000062  -0.000482  -0.001454   0.018872
    22  H    0.001093   0.000466   0.000077  -0.000053  -0.003467   0.045381
    23  H   -0.004543  -0.002182   0.000703   0.000941   0.004631   0.176927
    24  H    0.007250   0.000055   0.000417   0.000443  -0.003807  -0.076097
    25  H   -0.003848   0.000506  -0.001068  -0.000041   0.003778   0.097338
    26  H   -0.001628  -0.000450   0.000468  -0.001386   0.003445   0.018285
    27  O    0.001526   0.002399   0.240744   0.013084  -0.012484  -0.004702
    28  O    0.343394   0.005684  -0.003334  -0.007049   0.063253  -0.114734
    29  O    0.015008   0.308063  -0.016829   0.229838   0.022687  -0.047361
    30  H   -0.000046   0.000064  -0.106637  -0.004918  -0.001063  -0.000372
    31  H    0.624679   0.000298  -0.000590   0.000763  -0.050539  -0.137284
    32  H    0.000298   0.495220  -0.000403  -0.082131  -0.031118  -0.003851
    33  H   -0.000590  -0.000403   0.584152  -0.008264   0.004717   0.003720
    34  H    0.000763  -0.082131  -0.008264   0.468075  -0.018829   0.007279
    35  H   -0.050539  -0.031118   0.004717  -0.018829   0.365206   0.028044
    36  H   -0.137284  -0.003851   0.003720   0.007279   0.028044   0.852763
    37  O    0.001046  -0.008156  -0.001180  -0.004801   0.009184  -0.002430
    38  H   -0.000487  -0.004325   0.000110  -0.000173   0.003331   0.001329
    39  H    0.000102  -0.007433  -0.000029  -0.000820   0.001912  -0.001054
              37         38         39
     1  N    0.000040   0.000247  -0.000041
     2  C    0.000165  -0.001034   0.000134
     3  C    0.000197   0.000972  -0.000217
     4  C   -0.001306  -0.000742   0.000035
     5  C   -0.001870  -0.000564   0.000858
     6  C    0.005382   0.000038  -0.000052
     7  C    0.001940   0.000797  -0.000062
     8  C   -0.000115   0.000013   0.000052
     9  C   -0.000106  -0.000043   0.000021
    10  C    0.000067   0.000103  -0.000071
    11  N    0.002042   0.000281  -0.000123
    12  C   -0.000513  -0.000388   0.000234
    13  H   -0.000035  -0.000014   0.000001
    14  H    0.000007   0.000003   0.000001
    15  H   -0.000052  -0.000015  -0.000014
    16  H   -0.005387  -0.000924  -0.000478
    17  H    0.000183   0.000041   0.000011
    18  H   -0.000016  -0.000005  -0.000005
    19  H    0.000201   0.000014   0.000031
    20  H    0.000007  -0.000003   0.000008
    21  H   -0.000099   0.000003  -0.000019
    22  H   -0.000070  -0.000020  -0.000009
    23  H    0.000208   0.000014   0.000037
    24  H   -0.000125  -0.000095   0.000079
    25  H   -0.000071  -0.000113  -0.000114
    26  H   -0.001391   0.000015   0.000496
    27  O    0.000985  -0.000221  -0.000023
    28  O   -0.001056  -0.000147   0.000083
    29  O   -0.076404   0.001572   0.001451
    30  H    0.000585   0.000047  -0.000080
    31  H    0.001046  -0.000487   0.000102
    32  H   -0.008156  -0.004325  -0.007433
    33  H   -0.001180   0.000110  -0.000029
    34  H   -0.004801  -0.000173  -0.000820
    35  H    0.009184   0.003331   0.001912
    36  H   -0.002430   0.001329  -0.001054
    37  O    7.689129   0.354006   0.364202
[...]
 824,-0.00084284,-0.00000001,-0.00009713,0.00014092,0.00009136,0.000062
 35,-0.00004082,0.00091802,-0.00050810,-0.00008196,-0.00470847,-0.00351
 412,-0.00448228,-0.00088647,-0.00001665,0.00071589,-0.00001433,0.00001
 893,0.00001086,0.00004082,-0.00000261,0.00000302,0.00003100,0.00010202
 ,0.00006241,-0.00122412,-0.00063259,0.00067027,-0.00015177,-0.00045308
 ,0.00004585,-0.00006710,-0.00003855,0.00001828,-0.00002654,0.00012483,
 0.00000754,-0.00005592,-0.00010018,-0.00000850,0.00009610,-0.00010287,
 -0.00008879,-0.00022820,0.00003197,-0.00005778,0.00011505,-0.00002503,
 0.00010031,-0.00003310,-0.00010256,-0.00044610,0.00007966,-0.00003348,
 0.00007898,0.00005880,-0.00005860,-0.00016128,-0.00086477,0.00019663,0
 .00008356,-0.02380234,-0.03641982,-0.01561601,-0.00917886,-0.04178893,
 0.01974697,-0.00002610,-0.00008539,0.00027031,0.01377796,-0.00128896,0
 .00036322,-0.00480025,0.00117112,-0.00841368,-0.00030915,-0.00117994,-
 0.00011876,0.01940715,0.00027116,-0.00179326,0.00574381,0.07558808,0.0
 0031554,-0.00018967,-0.00017983,0.00003553,-0.00007354,0.00000097,0.00
 000135,-0.00001861,0.00000468,-0.00005956,-0.00000702,-0.00003665,-0.0
 0003217,-0.00015541,-0.00012386,-0.00020913,0.00049004,0.00017891,-0.0
 0028952,0.00020689,-0.00047273,0.00008365,-0.00000652,0.00002424,0.000
 05007,-0.00001555,-0.00004360,0.00042586,-0.00025058,-0.00011393,-0.00
 292167,-0.00273301,-0.00182539,-0.00042975,0.00000459,0.00067493,-0.00
 000035,-0.00002104,-0.00000049,0.00000033,-0.00000839,0.00000102,-0.00
 000888,-0.00001147,0.00000300,0.00033740,0.00053779,0.00025954,-0.0001
 2459,-0.00024143,0.00003462,-0.00001164,0.00000140,-0.00000263,0.00001
 392,0.00000796,-0.00000905,0.00000517,0.00001552,0.00001005,-0.0000014
 2,0.00000134,0.00002096,-0.00007322,0.00003462,-0.00002239,0.00006247,
 0.00006802,0.00002518,0.00015120,0.00002831,-0.00025041,-0.00012229,0.
 00017746,-0.00009942,-0.00000330,-0.00028163,-0.00016986,0.00063397,0.
 00130595,-0.00066754,-0.00753267,-0.01340315,-0.02789537,-0.01457141,0
 .02242949,-0.05131743,-0.00016310,0.00022358,0.00011436,0.00813839,0.0
 0068403,-0.00062188,0.02058807,-0.00647001,0.00776050,-0.00031971,0.00
 017372,0.00002672,-0.00848098,-0.00609093,0.00075499,0.00242040,-0.004
 59906,0.07227030,-0.00200742,-0.00106315,-0.00095089,-0.00036364,0.000
 40997,-0.00014213,-0.00014318,-0.00042807,-0.00020296,-0.00094094,0.00
 073730,-0.00037466,0.00214352,-0.00144874,-0.00088174,0.00138510,0.001
 74970,0.00294968,0.00147435,-0.01200477,0.00952302,-0.00006234,0.00022
 876,0.00137827,-0.00039190,-0.00000631,0.00179172,-0.01975609,0.006714
 81,-0.00199132,-0.00495301,0.02514135,0.01949766,0.01215293,0.00417898
 ,-0.00680215,-0.00000315,-0.00005183,-0.00007553,-0.00015744,0.0000569
 9,0.00002921,-0.00006382,-0.00047191,-0.00029219,0.00003315,0.00211484
 ,-0.00118790,0.00309117,0.00489039,-0.00029980,0.00023934,0.00002639,-
 0.00073795,-0.00008323,0.00028685,-0.00066597,0.00025412,0.00015354,-0
 .00075079,0.00026989,-0.00028350,-0.00067548,0.00264851,-0.00051042,0.
 00108707,0.00131845,-0.00176435,-0.00031432,0.00053828,0.00027072,0.00
 641088,0.00014058,-0.00094630,0.00149983,-0.00048751,0.00095858,0.0017
 0383,-0.00007508,-0.00369729,0.00019769,-0.05487333,-0.00263400,-0.012
 93852,0.01322680,-0.00475434,-0.00093293,-0.00020352,0.00005658,-0.000
 09059,0.01922259,0.00477108,0.00946029,-0.00189963,-0.00085176,0.00328
 652,0.00184994,0.00170843,0.00112210,-0.00131616,0.00528833,-0.0021908
 7,-0.02366661,0.00646892,0.00193050,0.05062115,-0.00090345,-0.00054710
 ,-0.00067472,0.00013282,0.00073372,0.00050931,-0.00069476,0.00010963,-
 0.00022768,-0.00022749,-0.00039337,-0.00058162,0.00083743,-0.00035037,
 -0.00076966,-0.00019179,-0.00036347,0.00048592,-0.01060348,-0.01158324
 ,-0.00291892,-0.00003437,0.00078007,0.00046927,-0.00029067,0.00036615,
 0.00080443,0.00589835,0.00888475,0.00943532,0.02248750,-0.02618899,0.0
 1301060,0.00480960,0.00210857,-0.00596158,-0.00000326,0.00002791,0.000
 03881,-0.00009126,0.00004510,0.00000309,0.00001447,-0.00016509,-0.0000
 3809,0.00117253,0.00025661,0.00086902,0.00094036,0.00035590,0.00105935
 ,0.00041414,-0.00008578,-0.00040053,-0.00003993,0.00018795,0.00006215,
 -0.00006174,-0.00020827,-0.00036530,0.00025926,-0.00021357,-0.00082353
 ,0.00450004,-0.00242486,-0.00044470,0.00168681,-0.00192367,0.00047777,
 0.00046865,0.00028574,0.00322677,0.00019469,-0.00053833,0.00165757,-0.
 00054434,0.00019959,0.00035444,-0.00036004,-0.00297138,0.00012644,0.02
 583376,-0.04117023,-0.01008270,0.01525376,-0.00480748,-0.00225904,-0.0
 0009582,0.00000856,-0.00003840,-0.01140063,-0.00673382,-0.00702086,-0.
 00064346,-0.00082225,0.00283247,0.00172939,0.00129079,0.00096015,-0.00
 055560,0.00442514,-0.00174526,-0.02498100,0.00803767,0.00747770,-0.035
 52970,0.07319668,-0.00124243,-0.00117061,-0.00104794,-0.00015044,0.000
 29410,0.00000543,-0.00019167,-0.00030852,-0.00019034,-0.00060394,0.000
 36628,-0.00031449,0.00111523,-0.00122401,-0.00090331,0.00119745,0.0015
 3282,0.00263488,0.00746430,-0.00682943,0.01134650,0.00061350,0.0008311
 8,0.00143992,0.00050209,0.00025643,0.00132133,-0.00256012,0.00763576,0
 .00655043,0.02613987,0.01851760,-0.02841508,-0.00814942,-0.00408537,-0
 .01684631,-0.00000655,-0.00005902,-0.00005106,-0.00011052,0.00003210,0
 .00001363,-0.00004995,-0.00035392,-0.00021030,-0.00067590,0.00189371,-
 0.00078707,0.00253745,0.00471964,-0.00077375,-0.00016671,-0.00011741,-
 0.00076504,-0.00013365,0.00074399,-0.00112836,-0.00018144,-0.00013471,
 -0.00065135,0.00056246,-0.00062167,-0.00105090,0.00359044,-0.00170681,
 0.00007491,0.00072359,-0.00130075,0.00028493,0.00166335,0.00044392,0.0
 0045478,-0.00039860,-0.00003833,0.00056919,-0.00042544,-0.00002229,0.0
 0101791,-0.00004140,-0.00291207,0.00016682,0.00585185,-0.01842355,-0.0
 3312921,0.01583654,-0.00629377,-0.00101012,-0.00016526,0.00001468,-0.0
 0006611,-0.00019975,-0.00071483,-0.00359565,-0.00095145,-0.00075391,0.
 00320905,0.00136732,0.00123256,0.00089512,-0.00033185,0.00430844,-0.00
 186598,-0.02512535,0.01234259,0.00367957,-0.02791562,-0.00830740,0.060
 44856,-0.00003132,-0.00010707,0.00001648,-0.00009484,0.00006815,-0.000
 04291,0.00007470,-0.00002981,0.00001006,-0.00000983,0.00007043,0.00004
 012,-0.00003237,-0.00008720,-0.00004767,0.00005086,0.00008886,0.000128
 10,0.00004497,0.00021183,-0.00007255,0.00000599,-0.00001713,0.00002019
 ,0.00000358,0.00001075,-0.00000609,0.00015963,-0.00009612,-0.00001019,
 -0.00049699,-0.00027320,-0.00022069,0.00005482,0.00000187,-0.00002367,
 0.00000117,-0.00001758,-0.00000217,-0.00000530,-0.00000538,-0.00000501
 ,0.00000081,0.00001067,-0.00000377,0.00005424,0.00007139,-0.00008743,-
 0.00002873,-0.00004642,-0.00000930,-0.00002276,-0.00001057,0.00000215,
 0.00001095,0.00002171,-0.00001611,-0.00002425,-0.00001575,0.00000357,0
 .00002459,-0.00000791,-0.00001279,-0.00003551,-0.00000860,-0.00001441,
 0.00002823,-0.00002554,0.00000937,-0.00009259,-0.00002789,0.00001403,0
 .00012192,-0.00008042,0.00003636,0.00005635,0.00014916,0.00001925,0.00
 085771,-0.00126034,0.00037498,-0.00205415,-0.00014622,-0.00005719,-0.0
 0479429,-0.00495225,0.01439250,-0.00021022,-0.00011787,-0.00003065,0.0
 0001797,-0.00009854,-0.00013407,-0.00139654,0.00202830,-0.00448368,-0.
 00000743,0.00009091,0.00000608,-0.00213227,0.00296610,-0.00008411,0.00
 299882,-0.00057732,0.00012568,0.00090248,0.00064768,0.00055613,0.36741
 077,-0.00031929,-0.00013650,0.00003516,0.00001206,0.00016169,0.0000764
 8,-0.00005392,0.00002317,-0.00001348,0.00001336,-0.00000004,0.00000125
 ,0.00004006,-0.00004643,-0.00002365,0.00012391,-0.00011610,-0.00001910
 ,0.00008056,-0.00012391,0.00002403,0.00001510,0.00004324,-0.00002598,-
 0.00002202,-0.00000129,0.00002095,0.00006658,-0.00010845,-0.00001328,-
 0.00012750,0.00011606,-0.00004005,0.00007921,-0.00020078,0.00002784,0.
 00001197,0.00003914,-0.00001731,0.00000134,0.00000816,-0.00001231,-0.0
 0000943,-0.00000515,-0.00000902,0.00006357,-0.00001993,-0.00002085,-0.
 00001697,0.00000939,-0.00000819,-0.00000095,0.00000339,-0.00000800,0.0
 0000226,-0.00000423,-0.00001961,-0.00001201,0.00000557,-0.00000041,0.0
 0000486,0.00000987,0.00000618,-0.00001375,0.00000412,-0.00000232,-0.00
 000095,0.00003065,0.00001187,-0.00002658,0.00003409,-0.00000037,-0.000
 04615,0.00002651,-0.00000168,0.00003606,0.00004086,0.00001784,-0.00026
 665,-0.00005410,0.00043439,-0.00102072,0.00059962,-0.00030886,-0.00502
 212,0.00621977,0.00512280,-0.00009997,-0.00006696,-0.00008375,-0.00017
 789,-0.00017753,0.00013075,0.00195100,-0.01445920,-0.00162963,0.000354
 84,0.00025815,-0.00003967,0.00090843,-0.00013307,-0.00139366,0.0023606
 1,-0.00088333,0.00073689,0.00001820,-0.00000584,0.00006329,-0.00113397
 ,0.70555194,0.00044881,0.00036699,0.00028929,0.00012949,-0.00018720,-0
 .00004448,-0.00003763,0.00007830,0.00008147,0.00005212,-0.00008907,0.0
 0000936,0.00006265,0.00015017,0.00015073,-0.00018480,-0.00015145,-0.00
 029289,-0.00005805,-0.00003887,0.00008595,-0.00005757,-0.00003373,-0.0
 0002767,-0.00002832,-0.00001665,-0.00002877,-0.00018212,0.00005191,0.0
 0006614,0.00086987,0.00053134,0.00079091,0.00020794,0.00002030,-0.0004
 0497,-0.00002692,0.00003090,-0.00003309,0.00003006,0.00003108,0.000000
 65,0.00003474,0.00001720,-0.00000202,-0.00017243,-0.00009724,0.0000718
 1,0.00007798,0.00007102,0.00001481,0.00002121,0.00000740,0.00002675,-0
 .00000226,-0.00003868,0.00005259,0.00002854,0.00001344,0.00002317,-0.0
 0003817,0.00002293,0.00004974,0.00008575,0.00001735,0.00002092,-0.0000
 4718,0.00000438,-0.00005930,0.00001768,0.00002128,0.00010590,0.0000699
 9,-0.00009743,-0.00007192,0.00002405,0.00013266,-0.00008913,-0.0001472
 2,0.00278956,-0.00039344,0.00566791,-0.00010485,0.00115539,0.01668020,
 0.00676858,-0.01701472,0.00009510,0.00003393,0.00016340,0.00005772,0.0
 0017967,0.00002384,-0.00771283,-0.00313516,-0.00159531,-0.00096066,-0.
 00078653,-0.00065666,0.00212651,-0.00505187,0.00068905,-0.00905981,0.0
 0238984,-0.00179294,-0.00193271,-0.00149297,-0.00168539,-0.20454233,0.
 07259917,0.14417856,0.00001928,0.00002635,-0.00008383,0.00002839,-0.00
 006362,-0.00000434,-0.00001435,-0.00001142,-0.00001773,-0.00001284,-0.
 00000935,-0.00002214,-0.00001124,0.00002374,-0.00000338,-0.00003345,0.
 00004678,0.00001511,-0.00003132,-0.00003143,0.00000318,0.00000420,-0.0
 0000159,0.00000675,0.00000757,-0.00000152,0.00000091,-0.00003791,0.000
 04698,-0.00000925,0.00005330,-0.00004154,-0.00006623,-0.00009077,0.000
 07561,0.00006859,0.00000386,-0.00000612,0.00001120,-0.00000145,-0.0000
 0727,0.00000606,-0.00000494,-0.00000746,0.00000687,-0.00000139,0.00000
 155,0.00002275,0.00000037,-0.00000055,0.00000332,0.00000451,0.00000235
 ,-0.00000391,-0.00000361,0.00000066,0.00000146,0.00000712,0.00000105,-
 0.00000556,-0.00000159,-0.00000412,-0.00000623,0.00000036,-0.00000101,
 0.00000232,0.00000069,-0.00000048,0.00000364,0.00003314,-0.00000825,-0
 .00001839,-0.00002683,0.00002426,0.00000413,-0.00003325,-0.00007722,0.
 00001286,-0.00025622,-0.00006578,-0.00017986,-0.00006942,-0.00007782,-
 0.00007036,0.00026073,-0.00058349,0.00016157,0.00011081,0.00002054,-0.
 00001949,0.00001276,0.00001303,0.00000497,-0.00126657,0.00158031,-0.00
 077077,0.00011637,0.00003793,0.00016205,0.00000888,0.00011483,0.000444
 82,0.00007020,0.00008337,-0.00003030,0.00005891,0.00006455,0.00009293,
 -0.22056717,0.22700171,0.14505431,0.21157515,0.00013864,0.00002170,-0.
 00007294,-0.00007501,-0.00005123,-0.00006423,0.00006702,-0.00004413,-0
 .00000537,-0.00002502,0.00003651,0.00001188,-0.00003285,-0.00002082,-0
 .00001058,-0.00003683,0.00011716,0.00007845,-0.00003703,0.00012341,-0.
 00004229,-0.00000097,-0.00002849,0.00002354,0.00001230,0.00000750,-0.0
 0000892,0.00000629,0.00001263,0.00000128,-0.00011377,-0.00016832,-0.00
 009775,-0.00004852,0.00006618,0.00001013,-0.00000795,-0.00004799,0.000
 02437,-0.00000945,-0.00001186,0.00000612,0.00000384,0.00000154,0.00000
 494,0.00000500,0.00003149,-0.00002590,-0.00000190,-0.00002176,0.000001
 83,-0.00000597,-0.00000270,0.00000264,0.00000149,0.00001019,0.00000402
 ,0.00000073,-0.00000811,-0.00000105,0.00000522,-0.00001076,-0.00000893
 ,-0.00000569,-0.00000189,-0.00000273,0.00000916,-0.00001770,0.00000290
 ,-0.00001048,-0.00001159,-0.00000474,0.00003136,-0.00003163,0.00000507
 ,0.00000173,0.00002101,0.00000286,0.00027441,-0.00058790,-0.00022581,-
 0.00065886,-0.00018574,-0.00003667,-0.00168219,-0.00199719,0.00310916,
 0.00002994,0.00003081,0.00003106,0.00002955,0.00001445,-0.00003942,0.0
 0207668,0.00318448,-0.00468158,-0.00010614,0.00000648,0.00017387,-0.00
 056484,0.00124645,0.00004619,0.00083491,-0.00008286,-0.00002995,0.0003
 3608,0.00027343,0.00023607,0.17753777,-0.27572817,-0.12198052,-0.20760
 748,0.30027461,-0.00023081,-0.00012999,-0.00008071,-0.00001198,0.00009
 409,0.00004615,-0.00000950,-0.00000600,-0.00003523,-0.00001460,0.00001
 723,-0.00001055,-0.00002075,-0.00001870,-0.00003786,0.00009036,-0.0000
 5049,0.00003033,0.00001890,-0.00003814,0.00000429,0.00001043,0.0000128
 3,0.00000039,0.00000585,-0.00000036,0.00000713,0.00001952,0.00001031,-
 0.00001280,-0.00008713,-0.00005027,-0.00011243,-0.00004034,0.00001972,
 0.00006641,0.00001476,0.00000249,0.00001712,-0.00001344,-0.00001350,0.
 00000237,-0.00001458,-0.00000470,0.00000360,0.00003224,-0.00000423,0.0
 0000139,-0.00001616,-0.00000297,-0.00000477,-0.00000083,-0.00000071,-0
 .00000553,-0.00000102,0.00000267,-0.00001066,-0.00000389,0.00000075,-0
 .00000443,0.00000379,-0.00000177,-0.00000766,-0.00001308,-0.00000417,-
 0.00000267,0.00000514,0.00000300,0.00000806,-0.00001206,-0.00000863,-0
 .00001009,-0.00000585,0.00002207,0.00001786,-0.00000795,-0.00003004,0.
 00003789,-0.00054532,-0.00015764,0.00016894,-0.00048980,-0.00003007,-0
 .00011195,-0.00011690,0.00198517,-0.00215579,0.00000447,0.00003084,-0.
 00005571,0.00000024,-0.00001345,0.00000587,0.00106277,-0.00469998,0.00
 204490,0.00043108,0.00030303,0.00017871,0.00091315,-0.00036481,-0.0006
 1923,0.00076010,-0.00008426,-0.00002091,0.00024145,0.00015525,0.000189
 52,0.13725647,-0.14640179,-0.09476020,-0.13681367,0.14193895,0.0924920
 9,-0.00003951,0.00001022,-0.00002067,0.00000788,0.00001087,0.00001689,
 -0.00001816,-0.00000013,-0.00001059,-0.00000029,-0.00000569,-0.0000126
 5,0.00001893,-0.00000285,0.00000094,0.00000940,-0.00001261,-0.00001168
 ,0.00000225,-0.00008123,0.00001829,0.00000830,0.00001390,-0.00000767,-
 0.00000573,0.00000115,0.00000886,-0.00002720,-0.00001313,-0.00000409,0
 .00007057,0.00007728,-0.00000453,-0.00000903,-0.00008516,0.00004240,0.
 00000097,0.00000065,0.00000257,-0.00000151,-0.00000018,0.00000160,-0.0
 0000321,-0.00000676,0.00000035,0.00001202,-0.00001564,0.00001262,0.000
 00123,0.00000997,0.00000065,0.00000520,0.00000489,-0.00000390,-0.00000
 321,-0.00000314,-0.00000165,0.00000497,0.00000531,-0.00000244,-0.00000
 441,0.00000082,0.00000204,0.00000191,0.00000446,0.00000321,-0.00000639
 ,0.00001715,0.00000678,0.00001635,0.00002598,-0.00000731,-0.00005362,0
 .00003150,-0.00000675,0.00000216,-0.00002408,0.00000748,-0.00010294,0.
 00000487,-0.00007661,-0.00004824,0.00028046,-0.00016440,-0.00040290,0.
 00038667,0.00104016,0.00004742,0.00001797,0.00000101,-0.00008725,-0.00
 005851,0.00012074,-0.00057050,-0.00165058,-0.00195923,0.00005771,0.000
 04165,0.00003157,0.00005442,-0.00003331,0.00013836,0.00046082,-0.00033
 069,0.00006617,-0.00012327,-0.00009298,-0.00003701,-0.14084400,-0.2247
 7486,0.05334840,0.01008773,0.02962883,-0.00240105,0.13148113,0.0001188
 1,0.00006140,0.00000638,0.00000319,-0.00004552,-0.00001635,0.00001731,
 -0.00000153,0.00000412,-0.00000065,-0.00000342,-0.00000273,-0.00000713
 ,0.00002518,0.00001333,-0.00002854,0.00002840,-0.00002377,-0.00002901,
 0.00001772,-0.00000195,-0.00000414,-0.00001109,0.00000590,0.00000762,-
 0.00000152,-0.00000690,-0.00004301,0.00006361,0.00000823,0.00010528,-0
 .00001498,0.00003791,-0.00002171,0.00006092,-0.00000142,-0.00000584,-0
 .00001003,0.00000451,-0.00000092,-0.00000277,0.00000604,0.00000273,0.0
 0000056,0.00000486,-0.00003312,-0.00000951,0.00002060,0.00000885,0.000
 00240,0.00000407,0.00000292,-0.00000067,0.00000238,-0.00000056,-0.0000
 0125,0.00000881,0.00000747,0.00000021,-0.00000048,-0.00000523,-0.00000
 175,-0.00000253,0.00000926,-0.00000181,0.00000281,-0.00000425,-0.00000
 917,-0.00000534,0.00001856,-0.00000369,-0.00000366,-0.00001082,0.00001
 166,-0.00000371,-0.00000921,-0.00003877,-0.00000264,0.00009345,0.00025
 012,-0.00012682,0.00061202,-0.00021789,0.00004235,0.00182820,0.0001500
 5,-0.00223421,0.00000087,0.00001384,0.00004993,0.00007196,0.00009854,-
 0.00003020,-0.00251331,-0.00046359,0.00366896,-0.00016461,-0.00011399,
 -0.00005409,0.00002617,-0.00034078,0.00020975,-0.00115871,0.00040291,0
 .00000166,-0.00012035,-0.00007687,-0.00008678,-0.17483248,-0.42091438,
 0.04697286,-0.02055805,-0.02641920,0.00751827,0.19661694,0.44751664,-0
 .00005920,-0.00003869,-0.00004143,-0.00000793,0.00001812,0.00001190,-0
 .00000292,-0.00000536,-0.00000761,-0.00000273,0.00000775,-0.00000182,-
 0.00000505,-0.00001176,-0.00002193,0.00002259,0.00000167,0.00002293,0.
 00000975,-0.00001429,-0.00000392,0.00000937,0.00000796,0.00000224,0.00
 000445,0.00000376,0.00000763,0.00001270,0.00000597,-0.00000405,-0.0000
 8383,-0.00003571,-0.00010137,-0.00002123,-0.00002864,0.00006122,0.0000
 0483,-0.00000020,0.00000399,-0.00000243,-0.00000355,0.00000075,-0.0000
 0580,-0.00000319,0.00000228,0.00000850,0.00000590,0.00000035,-0.000009
 34,-0.00000598,-0.00000296,-0.00000130,-0.00000068,-0.00000389,-0.0000
 0167,0.00000535,-0.00000574,-0.00000232,-0.00000069,-0.00000351,0.0000
 0225,-0.00000332,-0.00000819,-0.00001215,-0.00000581,-0.00000403,0.000
 00623,0.00000158,0.00001151,-0.00000477,0.00000062,-0.00001099,-0.0000
 1660,0.00002238,0.00002203,0.00000291,-0.00002016,0.00001064,-0.000144
 52,-0.00017480,-0.00007595,-0.00027142,-0.00014427,-0.00009019,0.00128
 974,-0.00094916,-0.00330402,0.00005017,0.00005784,-0.00001117,0.000084
 36,0.00003829,-0.00000305,-0.00018334,0.00446501,0.00460742,0.00012604
 ,0.00008952,0.00008587,-0.00003603,0.00011791,0.00011413,0.00021134,0.
 00004145,-0.00017823,0.00023731,0.00013715,0.00018527,0.05689526,0.070
 78408,-0.02909755,-0.00796437,-0.01837591,0.00273619,-0.05013887,-0.05
 599013,0.02509528\\-0.00000062,0.00000006,0.00000023,0.00000109,0.0000
 0551,0.00000427,0.00000106,-0.00000235,-0.00000167,-0.00000066,-0.0000
 0106,-0.00000049,0.00000037,-0.00000157,-0.00000028,0.00000115,-0.0000
 0205,0.00000070,-0.00000113,-0.00000144,0.00000174,0.00000005,0.000002
 42,-0.00000096,0.00000129,-0.00000146,-0.00000125,-0.00000227,0.000000
 13,0.00000024,0.00000122,-0.00000093,-0.00000154,0.00000015,-0.0000002
 8,0.00000040,0.00000038,0.00000060,0.00000083,0.00000099,-0.00000033,0
 .00000044,0.00000077,-0.00000041,0.00000005,0.00000149,-0.00000050,0.0
 0000069,0.00000012,-0.00000062,-0.00000086,-0.00000024,-0.00000056,-0.
 00000032,-0.00000051,0.00000006,-0.00000053,-0.00000042,-0.00000096,-0
 .00000097,-0.00000078,-0.00000038,-0.00000067,0.00000020,-0.00000046,-
 0.00000035,-0.00000054,-0.00000016,-0.00000075,0.00000010,-0.00000078,
 -0.00000099,0.,-0.00000036,-0.00000038,0.00000085,-0.00000021,-0.00000
 042,-0.00000063,0.00000057,0.00000052,-0.00000020,0.00000015,0.0000001
 2,-0.00000049,0.00000055,0.00000048,-0.00000016,0.00000098,0.00000095,
 -0.00000070,0.00000009,-0.00000042,-0.00000042,0.00000040,0.00000021,0
 .00000032,0.00000085,0.00000070,-0.00000024,0.00000034,0.00000002,-0.0
 0000004,0.00000075,0.00000019,-0.00000145,0.00000175,-0.00000141,0.000
 00029,0.00000034,0.00000101,0.00000014,0.00000080,0.00000052,-0.000000
 51,0.00000050,-0.00000006\\\@


 IT IS THE BEHAVIOR AND DISTRIBUTION OF THE ELECTRONS 
 AROUND THE NUCLEUS THAT GIVES THE FUNDAMENTAL 
 CHARACTER OF AN ATOM:  IT MUST BE THE SAME FOR MOLECULES.

                               -- C. A. COULSON, 1951
 Job cpu time:       1 days  8 hours 11 minutes 48.0 seconds.
 Elapsed time:       0 days  1 hours  9 minutes  2.5 seconds.
 File lengths (MBytes):  RWF=   1236 Int=      0 D2E=      0 Chk=     32 Scr=      8
 Normal termination of Gaussian 16 at Fri Nov 18 01:26:59 2022.
