 Entering Gaussian System, Link 0=g16
 Input=NicPyrNa4h3bRMid.gjf
 Output=NicPyrNa4h3bRMid.log
 Initial command:
 /sw/contrib/gaussian/g16/A03/g16/l1.exe "/gscratch/scrubbed/gds001/Gau-24381.inp" -scrdir="/gscratch/scrubbed/gds001/"
 Entering Link 1 = /sw/contrib/gaussian/g16/A03/g16/l1.exe PID=     24382.
  
 Copyright (c) 1988,1990,1992,1993,1995,1998,2003,2009,2016,
            Gaussian, Inc.  All Rights Reserved.
  
 This is part of the Gaussian(R) 16 program.  It is based on
 the Gaussian(R) 09 system (copyright 2009, Gaussian, Inc.),
 the Gaussian(R) 03 system (copyright 2003, Gaussian, Inc.),
 the Gaussian(R) 98 system (copyright 1998, Gaussian, Inc.),
 the Gaussian(R) 94 system (copyright 1995, Gaussian, Inc.),
 the Gaussian 92(TM) system (copyright 1992, Gaussian, Inc.),
 the Gaussian 90(TM) system (copyright 1990, Gaussian, Inc.),
 the Gaussian 88(TM) system (copyright 1988, Gaussian, Inc.),
 the Gaussian 86(TM) system (copyright 1986, Carnegie Mellon
 University), and the Gaussian 82(TM) system (copyright 1983,
 Carnegie Mellon University). Gaussian is a federally registered
 trademark of Gaussian, Inc.
  
 This software contains proprietary and confidential information,
 including trade secrets, belonging to Gaussian, Inc.
  
 This software is provided under written license and may be
 used, copied, transmitted, or stored only in accord with that
 written license.
  
 The following legend is applicable only to US Government
 contracts under FAR:
  
                    RESTRICTED RIGHTS LEGEND
  
 Use, reproduction and disclosure by the US Government is
 subject to restrictions as set forth in subparagraphs (a)
 and (c) of the Commercial Computer Software - Restricted
 Rights clause in FAR 52.227-19.
  
 Gaussian, Inc.
 340 Quinnipiac St., Bldg. 40, Wallingford CT 06492
  
  
 ---------------------------------------------------------------
 Warning -- This program may not be used in any manner that
 competes with the business of Gaussian, Inc. or will provide
 assistance to any competitor of Gaussian, Inc.  The licensee
 of this program is prohibited from giving any competitor of
 Gaussian, Inc. access to this program.  By using this program,
 the user acknowledges that Gaussian, Inc. is engaged in the
 business of creating and licensing software in the field of
 computational chemistry and represents and warrants to the
 licensee that it is not a competitor of Gaussian, Inc. and that
 it will not use this program in any manner prohibited above.
 ---------------------------------------------------------------
  

 Cite this work as:
 Gaussian 16, Revision A.03,
 M. J. Frisch, G. W. Trucks, H. B. Schlegel, G. E. Scuseria, 
 M. A. Robb, J. R. Cheeseman, G. Scalmani, V. Barone, 
 G. A. Petersson, H. Nakatsuji, X. Li, M. Caricato, A. V. Marenich, 
 J. Bloino, B. G. Janesko, R. Gomperts, B. Mennucci, H. P. Hratchian, 
 J. V. Ortiz, A. F. Izmaylov, J. L. Sonnenberg, D. Williams-Young, 
 F. Ding, F. Lipparini, F. Egidi, J. Goings, B. Peng, A. Petrone, 
 T. Henderson, D. Ranasinghe, V. G. Zakrzewski, J. Gao, N. Rega, 
 G. Zheng, W. Liang, M. Hada, M. Ehara, K. Toyota, R. Fukuda, 
 J. Hasegawa, M. Ishida, T. Nakajima, Y. Honda, O. Kitao, H. Nakai, 
 T. Vreven, K. Throssell, J. A. Montgomery, Jr., J. E. Peralta, 
 F. Ogliaro, M. J. Bearpark, J. J. Heyd, E. N. Brothers, K. N. Kudin, 
 V. N. Staroverov, T. A. Keith, R. Kobayashi, J. Normand, 
 K. Raghavachari, A. P. Rendell, J. C. Burant, S. S. Iyengar, 
 J. Tomasi, M. Cossi, J. M. Millam, M. Klene, C. Adamo, R. Cammi, 
 J. W. Ochterski, R. L. Martin, K. Morokuma, O. Farkas, 
 J. B. Foresman, and D. J. Fox, Gaussian, Inc., Wallingford CT, 2016.
 
 ******************************************
 Gaussian 16:  ES64L-G16RevA.03 25-Dec-2016
                 1-Feb-2023 
 ******************************************
 %nprocshared=28
 Will use up to   28 processors via shared memory.
 %mem=41GB
 -----------------------------
 # wB97XD/aug-cc-pVDZ opt freq
 -----------------------------
 1/18=20,19=15,26=3,38=1/1,3;
 2/9=110,12=2,17=6,18=5,40=1/2;
 3/5=16,7=10,11=2,25=1,30=1,71=1,74=-58/1,2,3;
 4//1;
 5/5=2,38=5/2;
 6/7=2,8=2,9=2,10=2,28=1/1;
 7//1,2,3,16;
 1/18=20,19=15,26=3/3(2);
 2/9=110/2;
 99//99;
 2/9=110/2;
 3/5=16,7=10,11=2,25=1,30=1,71=1,74=-58/1,2,3;
 4/5=5,16=3,69=1/1;
 5/5=2,38=5/2;
 7//1,2,3,16;
 1/18=20,19=15,26=3/3(-5);
 2/9=110/2;
 6/7=2,8=2,9=2,10=2,19=2,28=1/1;
 99/9=1/99;
 ----
 blah
 ----
 Symbolic Z-matrix:
 Charge =  1 Multiplicity = 1
 C                     1.01624  -0.4455   -0.52611 
 C                     0.03573  -1.32987  -0.07067 
 C                     0.45877  -2.55561   0.44638 
 C                     1.81723  -2.84916   0.48057 
 C                     2.71332  -1.89369   0.00902 
 N                     2.32228  -0.71357  -0.48106 
 C                    -1.43027  -0.99351  -0.14022 
 C                    -2.0183   -0.68504  -1.51933 
 C                    -3.31148   0.11146  -1.22734 
 C                    -3.22536   0.49859   0.25985 
 N                    -1.80007   0.24595   0.63546 
 O                    -0.62766   2.48515  -0.29769 
 H                    -3.84895  -0.14241   0.89376 
 H                    -4.20819  -0.48918  -1.40773 
 H                    -3.3779    0.99931  -1.86335 
 H                    -1.30643  -0.08315  -2.09625 
 H                    -2.19848  -1.60874  -2.07667 
 H                    -3.46119   1.5453    0.47357 
 H                    -2.00247  -1.80418   0.3334 
 H                     0.74657   0.53018  -0.93559 
 H                     3.78772  -2.07783   0.02741 
 H                     2.18017  -3.79784   0.87081 
 H                    -0.26815  -3.28046   0.81578 
 C                    -1.54595   0.17979   2.08936 
 H                    -1.26584   1.0647    0.25131 
 H                     0.24228   2.75962   0.09558 
 H                    -0.95825   3.22251  -0.81383 
 H                     3.35251   0.79683  -0.72316 
 O                     3.64257   1.72955  -0.63663 
 H                     4.0687    1.97854  -1.4592 
 O                     1.70512   2.88144   0.78582 
 H                     2.47426   2.56408   0.25781 
 H                     2.02056   3.59962   1.33777 
 H                    -1.87679   1.11709   2.54609 
 H                    -0.47293   0.04812   2.25626 
 H                    -2.1024   -0.66264   2.51435 
 O                     2.92549   4.88203   2.20401 
 H                     3.25577   4.85634   3.11953 
 H                     3.46025   5.59566   1.81327 
 
 Add virtual bond connecting atoms O31        and H26        Dist= 3.07D+00.
 Add virtual bond connecting atoms H25        and O12        Dist= 3.12D+00.
 Add virtual bond connecting atoms N6         and H28        Dist= 3.49D+00.
 Add virtual bond connecting atoms H32        and O29        Dist= 3.20D+00.
 Add virtual bond connecting atoms O37        and H33        Dist= 3.39D+00.

 GradGradGradGradGradGradGradGradGradGradGradGradGradGradGradGradGradGrad
 Berny optimization.
 Initialization pass.
                           ----------------------------
                           !    Initial Parameters    !
                           ! (Angstroms and Degrees)  !
 --------------------------                            --------------------------
 ! Name  Definition              Value          Derivative Info.                !
 --------------------------------------------------------------------------------
 ! R1    R(1,2)                  1.3968         estimate D2E/DX2                !
 ! R2    R(1,6)                  1.334          estimate D2E/DX2                !
 ! R3    R(1,20)                 1.092          estimate D2E/DX2                !
 ! R4    R(2,3)                  1.396          estimate D2E/DX2                !
 ! R5    R(2,7)                  1.5057         estimate D2E/DX2                !
 ! R6    R(3,4)                  1.3902         estimate D2E/DX2                !
 ! R7    R(3,23)                 1.091          estimate D2E/DX2                !
 ! R8    R(4,5)                  1.3922         estimate D2E/DX2                !
 ! R9    R(4,22)                 1.0881         estimate D2E/DX2                !
 ! R10   R(5,6)                  1.3363         estimate D2E/DX2                !
 ! R11   R(5,21)                 1.0902         estimate D2E/DX2                !
 ! R12   R(6,28)                 1.8443         estimate D2E/DX2                !
 ! R13   R(7,8)                  1.5306         estimate D2E/DX2                !
 ! R14   R(7,11)                 1.5082         estimate D2E/DX2                !
 ! R15   R(7,19)                 1.0995         estimate D2E/DX2                !
 ! R16   R(8,9)                  1.5466         estimate D2E/DX2                !
 ! R17   R(8,16)                 1.0963         estimate D2E/DX2                !
 ! R18   R(8,17)                 1.0938         estimate D2E/DX2                !
 ! R19   R(9,10)                 1.5392         estimate D2E/DX2                !
 ! R20   R(9,14)                 1.0943         estimate D2E/DX2                !
 ! R21   R(9,15)                 1.0942         estimate D2E/DX2                !
 ! R22   R(10,11)                1.4954         estimate D2E/DX2                !
 ! R23   R(10,13)                1.0962         estimate D2E/DX2                !
 ! R24   R(10,18)                1.094          estimate D2E/DX2                !
 ! R25   R(11,24)                1.4774         estimate D2E/DX2                !
 ! R26   R(11,25)                1.0504         estimate D2E/DX2                !
 ! R27   R(12,25)                1.6512         estimate D2E/DX2                !
 ! R28   R(12,26)                0.9934         estimate D2E/DX2                !
 ! R29   R(12,27)                0.9588         estimate D2E/DX2                !
 ! R30   R(24,34)                1.0939         estimate D2E/DX2                !
 ! R31   R(24,35)                1.0939         estimate D2E/DX2                !
 ! R32   R(24,36)                1.0954         estimate D2E/DX2                !
 ! R33   R(26,31)                1.6221         estimate D2E/DX2                !
 ! R34   R(28,29)                0.9806         estimate D2E/DX2                !
 ! R35   R(29,30)                0.9593         estimate D2E/DX2                !
 ! R36   R(29,32)                1.6916         estimate D2E/DX2                !
 ! R37   R(31,32)                0.9854         estimate D2E/DX2                !
 ! R38   R(31,33)                0.9591         estimate D2E/DX2                !
 ! R39   R(33,37)                1.7927         estimate D2E/DX2                !
 ! R40   R(37,38)                0.9736         estimate D2E/DX2                !
 ! R41   R(37,39)                0.9736         estimate D2E/DX2                !
 ! A1    A(2,1,6)              123.2997         estimate D2E/DX2                !
 ! A2    A(2,1,20)             120.9745         estimate D2E/DX2                !
 ! A3    A(6,1,20)             115.7212         estimate D2E/DX2                !
 ! A4    A(1,2,3)              117.6444         estimate D2E/DX2                !
 ! A5    A(1,2,7)              121.8015         estimate D2E/DX2                !
 ! A6    A(3,2,7)              120.5515         estimate D2E/DX2                !
 ! A7    A(2,3,4)              119.3824         estimate D2E/DX2                !
 ! A8    A(2,3,23)             120.4554         estimate D2E/DX2                !
 ! A9    A(4,3,23)             120.1614         estimate D2E/DX2                !
 ! A10   A(3,4,5)              118.4038         estimate D2E/DX2                !
 ! A11   A(3,4,22)             121.2547         estimate D2E/DX2                !
 ! A12   A(5,4,22)             120.3403         estimate D2E/DX2                !
 ! A13   A(4,5,6)              122.816          estimate D2E/DX2                !
 ! A14   A(4,5,21)             120.8418         estimate D2E/DX2                !
 ! A15   A(6,5,21)             116.3418         estimate D2E/DX2                !
 ! A16   A(1,6,5)              118.4458         estimate D2E/DX2                !
 ! A17   A(1,6,28)             112.2029         estimate D2E/DX2                !
 ! A18   A(5,6,28)             127.4393         estimate D2E/DX2                !
 ! A19   A(2,7,8)              117.4311         estimate D2E/DX2                !
 ! A20   A(2,7,11)             113.4878         estimate D2E/DX2                !
 ! A21   A(2,7,19)             108.7895         estimate D2E/DX2                !
 ! A22   A(8,7,11)             101.7459         estimate D2E/DX2                !
 ! A23   A(8,7,19)             109.68           estimate D2E/DX2                !
 ! A24   A(11,7,19)            104.8795         estimate D2E/DX2                !
 ! A25   A(7,8,9)              104.7682         estimate D2E/DX2                !
 ! A26   A(7,8,16)             109.5926         estimate D2E/DX2                !
 ! A27   A(7,8,17)             110.622          estimate D2E/DX2                !
 ! A28   A(9,8,16)             111.0724         estimate D2E/DX2                !
 ! A29   A(9,8,17)             113.1659         estimate D2E/DX2                !
 ! A30   A(16,8,17)            107.6059         estimate D2E/DX2                !
 ! A31   A(8,9,10)             105.3769         estimate D2E/DX2                !
 ! A32   A(8,9,14)             111.8012         estimate D2E/DX2                !
 ! A33   A(8,9,15)             111.033          estimate D2E/DX2                !
 ! A34   A(10,9,14)            110.0719         estimate D2E/DX2                !
 ! A35   A(10,9,15)            111.1583         estimate D2E/DX2                !
 ! A36   A(14,9,15)            107.4476         estimate D2E/DX2                !
 ! A37   A(9,10,11)            104.6863         estimate D2E/DX2                !
 ! A38   A(9,10,13)            112.3246         estimate D2E/DX2                !
 ! A39   A(9,10,18)            114.6666         estimate D2E/DX2                !
 ! A40   A(11,10,13)           107.3465         estimate D2E/DX2                !
 ! A41   A(11,10,18)           108.543          estimate D2E/DX2                !
 ! A42   A(13,10,18)           108.8975         estimate D2E/DX2                !
 ! A43   A(7,11,10)            104.0841         estimate D2E/DX2                !
 ! A44   A(7,11,24)            115.2861         estimate D2E/DX2                !
 ! A45   A(7,11,25)            109.134          estimate D2E/DX2                !
 ! A46   A(10,11,24)           114.7507         estimate D2E/DX2                !
 ! A47   A(10,11,25)           105.1413         estimate D2E/DX2                !
 ! A48   A(24,11,25)           107.8981         estimate D2E/DX2                !
 ! A49   A(25,12,26)           116.3936         estimate D2E/DX2                !
 ! A50   A(25,12,27)           135.0137         estimate D2E/DX2                !
 ! A51   A(26,12,27)           107.6118         estimate D2E/DX2                !
 ! A52   A(11,24,34)           108.6925         estimate D2E/DX2                !
 ! A53   A(11,24,35)           108.9213         estimate D2E/DX2                !
 ! A54   A(11,24,36)           109.1996         estimate D2E/DX2                !
 ! A55   A(34,24,35)           109.6401         estimate D2E/DX2                !
 ! A56   A(34,24,36)           110.0797         estimate D2E/DX2                !
 ! A57   A(35,24,36)           110.2753         estimate D2E/DX2                !
 ! A58   A(6,28,29)            158.8495         estimate D2E/DX2                !
 ! A59   A(28,29,30)           107.6153         estimate D2E/DX2                !
 ! A60   A(28,29,32)           108.1561         estimate D2E/DX2                !
 ! A61   A(30,29,32)           129.21           estimate D2E/DX2                !
 ! A62   A(26,31,32)           116.8524         estimate D2E/DX2                !
 ! A63   A(26,31,33)           126.7057         estimate D2E/DX2                !
 ! A64   A(32,31,33)           107.0254         estimate D2E/DX2                !
 ! A65   A(33,37,38)           127.3534         estimate D2E/DX2                !
 ! A66   A(33,37,39)           127.4199         estimate D2E/DX2                !
 ! A67   A(38,37,39)           102.146          estimate D2E/DX2                !
 ! A68   L(11,25,12,1,-1)      188.5998         estimate D2E/DX2                !
 ! A69   L(12,26,31,1,-1)      168.9322         estimate D2E/DX2                !
 ! A70   L(29,32,31,1,-1)      169.1391         estimate D2E/DX2                !
 ! A71   L(31,33,37,30,-1)     168.53           estimate D2E/DX2                !
 ! A72   L(11,25,12,1,-2)      179.5682         estimate D2E/DX2                !
 ! A73   L(12,26,31,1,-2)      184.0097         estimate D2E/DX2                !
 ! A74   L(29,32,31,1,-2)      177.6389         estimate D2E/DX2                !
 ! A75   L(31,33,37,30,-2)     181.6429         estimate D2E/DX2                !
 ! D1    D(6,1,2,3)             -0.4559         estimate D2E/DX2                !
 ! D2    D(6,1,2,7)           -179.8776         estimate D2E/DX2                !
 ! D3    D(20,1,2,3)          -179.6434         estimate D2E/DX2                !
 ! D4    D(20,1,2,7)             0.935          estimate D2E/DX2                !
 ! D5    D(2,1,6,5)              0.8468         estimate D2E/DX2                !
 ! D6    D(2,1,6,28)          -164.5907         estimate D2E/DX2                !
 ! D7    D(20,1,6,5)          -179.9265         estimate D2E/DX2                !
 ! D8    D(20,1,6,28)           14.636          estimate D2E/DX2                !
 ! D9    D(1,2,3,4)             -0.3922         estimate D2E/DX2                !
 ! D10   D(1,2,3,23)           179.9427         estimate D2E/DX2                !
 ! D11   D(7,2,3,4)            179.037          estimate D2E/DX2                !
 ! D12   D(7,2,3,23)            -0.6281         estimate D2E/DX2                !
 ! D13   D(1,2,7,8)             58.4701         estimate D2E/DX2                !
 ! D14   D(1,2,7,11)           -59.9305         estimate D2E/DX2                !
 ! D15   D(1,2,7,19)          -176.2639         estimate D2E/DX2                !
 ! D16   D(3,2,7,8)           -120.935          estimate D2E/DX2                !
 ! D17   D(3,2,7,11)           120.6644         estimate D2E/DX2                !
 ! D18   D(3,2,7,19)             4.331          estimate D2E/DX2                !
 ! D19   D(2,3,4,5)              0.8063         estimate D2E/DX2                !
 ! D20   D(2,3,4,22)          -179.5845         estimate D2E/DX2                !
 ! D21   D(23,3,4,5)          -179.5276         estimate D2E/DX2                !
 ! D22   D(23,3,4,22)            0.0816         estimate D2E/DX2                !
 ! D23   D(3,4,5,6)             -0.4279         estimate D2E/DX2                !
 ! D24   D(3,4,5,21)           179.3267         estimate D2E/DX2                !
 ! D25   D(22,4,5,6)           179.9592         estimate D2E/DX2                !
 ! D26   D(22,4,5,21)           -0.2863         estimate D2E/DX2                !
 ! D27   D(4,5,6,1)             -0.3913         estimate D2E/DX2                !
 ! D28   D(4,5,6,28)           162.5596         estimate D2E/DX2                !
 ! D29   D(21,5,6,1)           179.8438         estimate D2E/DX2                !
 ! D30   D(21,5,6,28)          -17.2053         estimate D2E/DX2                !
 ! D31   D(1,6,28,29)           41.295          estimate D2E/DX2                !
 ! D32   D(5,6,28,29)         -122.5379         estimate D2E/DX2                !
 ! D33   D(2,7,8,9)           -159.3283         estimate D2E/DX2                !
 ! D34   D(2,7,8,16)           -40.0853         estimate D2E/DX2                !
 ! D35   D(2,7,8,17)            78.403          estimate D2E/DX2                !
 ! D36   D(11,7,8,9)           -34.8171         estimate D2E/DX2                !
 ! D37   D(11,7,8,16)           84.4259         estimate D2E/DX2                !
 ! D38   D(11,7,8,17)         -157.0858         estimate D2E/DX2                !
 ! D39   D(19,7,8,9)            75.8487         estimate D2E/DX2                !
 ! D40   D(19,7,8,16)         -164.9084         estimate D2E/DX2                !
 ! D41   D(19,7,8,17)          -46.42           estimate D2E/DX2                !
 ! D42   D(2,7,11,10)          171.7242         estimate D2E/DX2                !
 ! D43   D(2,7,11,24)          -61.6986         estimate D2E/DX2                !
 ! D44   D(2,7,11,25)           59.8798         estimate D2E/DX2                !
 ! D45   D(8,7,11,10)           44.6105         estimate D2E/DX2                !
 ! D46   D(8,7,11,24)          171.1877         estimate D2E/DX2                !
 ! D47   D(8,7,11,25)          -67.2339         estimate D2E/DX2                !
 ! D48   D(19,7,11,10)         -69.6665         estimate D2E/DX2                !
 ! D49   D(19,7,11,24)          56.9107         estimate D2E/DX2                !
 ! D50   D(19,7,11,25)         178.4891         estimate D2E/DX2                !
 ! D51   D(7,8,9,10)            12.8575         estimate D2E/DX2                !
 ! D52   D(7,8,9,14)          -106.7044         estimate D2E/DX2                !
 ! D53   D(7,8,9,15)           133.3095         estimate D2E/DX2                !
 ! D54   D(16,8,9,10)         -105.3856         estimate D2E/DX2                !
 ! D55   D(16,8,9,14)          135.0525         estimate D2E/DX2                !
 ! D56   D(16,8,9,15)           15.0664         estimate D2E/DX2                !
 ! D57   D(17,8,9,10)          133.4532         estimate D2E/DX2                !
 ! D58   D(17,8,9,14)           13.8914         estimate D2E/DX2                !
 ! D59   D(17,8,9,15)         -106.0947         estimate D2E/DX2                !
 ! D60   D(8,9,10,11)           14.3188         estimate D2E/DX2                !
 ! D61   D(8,9,10,13)         -101.8372         estimate D2E/DX2                !
 ! D62   D(8,9,10,18)          133.1434         estimate D2E/DX2                !
 ! D63   D(14,9,10,11)         135.0206         estimate D2E/DX2                !
 ! D64   D(14,9,10,13)          18.8646         estimate D2E/DX2                !
 ! D65   D(14,9,10,18)        -106.1548         estimate D2E/DX2                !
 ! D66   D(15,9,10,11)        -106.0509         estimate D2E/DX2                !
 ! D67   D(15,9,10,13)         137.7931         estimate D2E/DX2                !
 ! D68   D(15,9,10,18)          12.7738         estimate D2E/DX2                !
 ! D69   D(9,10,11,7)          -36.7663         estimate D2E/DX2                !
 ! D70   D(9,10,11,24)        -163.6782         estimate D2E/DX2                !
 ! D71   D(9,10,11,25)          77.9408         estimate D2E/DX2                !
 ! D72   D(13,10,11,7)          82.7887         estimate D2E/DX2                !
 ! D73   D(13,10,11,24)        -44.1232         estimate D2E/DX2                !
 ! D74   D(13,10,11,25)       -162.5043         estimate D2E/DX2                !
 ! D75   D(18,10,11,7)        -159.6523         estimate D2E/DX2                !
 ! D76   D(18,10,11,24)         73.4357         estimate D2E/DX2                !
 ! D77   D(18,10,11,25)        -44.9453         estimate D2E/DX2                !
 ! D78   D(7,11,12,26)         -91.9425         estimate D2E/DX2                !
 ! D79   D(7,11,12,27)         104.6174         estimate D2E/DX2                !
 ! D80   D(10,11,12,26)        157.3962         estimate D2E/DX2                !
 ! D81   D(10,11,12,27)         -6.0439         estimate D2E/DX2                !
 ! D82   D(24,11,12,26)         36.8688         estimate D2E/DX2                !
 ! D83   D(24,11,12,27)       -126.5713         estimate D2E/DX2                !
 ! D84   D(7,11,24,34)        -178.4308         estimate D2E/DX2                !
 ! D85   D(7,11,24,35)          62.158          estimate D2E/DX2                !
 ! D86   D(7,11,24,36)         -58.3242         estimate D2E/DX2                !
 ! D87   D(10,11,24,34)        -57.4906         estimate D2E/DX2                !
 ! D88   D(10,11,24,35)       -176.9018         estimate D2E/DX2                !
 ! D89   D(10,11,24,36)         62.6159         estimate D2E/DX2                !
 ! D90   D(25,11,24,34)         59.3261         estimate D2E/DX2                !
 ! D91   D(25,11,24,35)        -60.0851         estimate D2E/DX2                !
 ! D92   D(25,11,24,36)        179.4327         estimate D2E/DX2                !
 ! D93   D(25,12,31,32)         93.8993         estimate D2E/DX2                !
 ! D94   D(25,12,31,33)       -120.185          estimate D2E/DX2                !
 ! D95   D(27,12,31,32)        -93.5201         estimate D2E/DX2                !
 ! D96   D(27,12,31,33)         52.3956         estimate D2E/DX2                !
 ! D97   D(6,28,29,30)        -147.8133         estimate D2E/DX2                !
 ! D98   D(6,28,29,32)          -4.4782         estimate D2E/DX2                !
 ! D99   D(28,29,31,26)        -57.9981         estimate D2E/DX2                !
 ! D100  D(28,29,31,33)        149.0032         estimate D2E/DX2                !
 ! D101  D(30,29,31,26)         72.1421         estimate D2E/DX2                !
 ! D102  D(30,29,31,33)        -80.8567         estimate D2E/DX2                !
 ! D103  D(26,31,37,38)        119.5579         estimate D2E/DX2                !
 ! D104  D(26,31,37,39)        -89.2604         estimate D2E/DX2                !
 ! D105  D(32,31,37,38)        -99.5484         estimate D2E/DX2                !
 ! D106  D(32,31,37,39)         51.6334         estimate D2E/DX2                !
 --------------------------------------------------------------------------------
 Trust Radius=3.00D-01 FncErr=1.00D-07 GrdErr=1.00D-06 EigMax=2.50D+02 EigMin=1.00D-04
 Number of steps in this run=    232 maximum allowed number of steps=    234.
 GradGradGradGradGradGradGradGradGradGradGradGradGradGradGradGradGradGrad

                          Input orientation:                          
 ---------------------------------------------------------------------
 Center     Atomic      Atomic             Coordinates (Angstroms)
 Number     Number       Type             X           Y           Z
 ---------------------------------------------------------------------
      1          6           0        1.016236   -0.445502   -0.526106
      2          6           0        0.035726   -1.329872   -0.070671
      3          6           0        0.458768   -2.555605    0.446377
      4          6           0        1.817225   -2.849164    0.480568
      5          6           0        2.713317   -1.893685    0.009022
      6          7           0        2.322278   -0.713574   -0.481058
      7          6           0       -1.430270   -0.993513   -0.140218
      8          6           0       -2.018305   -0.685040   -1.519329
      9          6           0       -3.311483    0.111459   -1.227340
     10          6           0       -3.225359    0.498594    0.259851
     11          7           0       -1.800067    0.245952    0.635463
     12          8           0       -0.627662    2.485151   -0.297692
     13          1           0       -3.848945   -0.142407    0.893757
     14          1           0       -4.208190   -0.489176   -1.407729
     15          1           0       -3.377900    0.999307   -1.863347
     16          1           0       -1.306430   -0.083147   -2.096252
     17          1           0       -2.198476   -1.608744   -2.076669
     18          1           0       -3.461188    1.545295    0.473569
     19          1           0       -2.002470   -1.804183    0.333396
     20          1           0        0.746570    0.530183   -0.935588
     21          1           0        3.787718   -2.077831    0.027409
     22          1           0        2.180166   -3.797839    0.870810
     23          1           0       -0.268147   -3.280455    0.815777
     24          6           0       -1.545946    0.179787    2.089356
     25          1           0       -1.265835    1.064699    0.251311
     26          1           0        0.242283    2.759624    0.095581
     27          1           0       -0.958251    3.222507   -0.813831
     28          1           0        3.352505    0.796828   -0.723160
     29          8           0        3.642573    1.729551   -0.636632
     30          1           0        4.068696    1.978543   -1.459202
     31          8           0        1.705121    2.881440    0.785820
     32          1           0        2.474262    2.564075    0.257812
     33          1           0        2.020564    3.599617    1.337774
     34          1           0       -1.876790    1.117086    2.546091
     35          1           0       -0.472925    0.048117    2.256264
     36          1           0       -2.102400   -0.662636    2.514346
     37          8           0        2.925485    4.882033    2.204015
     38          1           0        3.255774    4.856341    3.119531
     39          1           0        3.460246    5.595660    1.813268
 ---------------------------------------------------------------------
                    Distance matrix (angstroms):
                    1          2          3          4          5
     1  C    0.000000
     2  C    1.396757   0.000000
     3  C    2.389357   1.395967   0.000000
     4  C    2.726273   2.405380   1.390234   0.000000
     5  C    2.294271   2.737468   2.390065   1.392220   0.000000
     6  N    1.334031   2.403448   2.779547   2.395944   1.336320
     7  C    2.536655   1.505695   2.520454   3.791443   4.242864
     8  C    3.201923   2.594891   3.674085   4.836767   5.117121
     9  C    4.419399   3.823497   4.912164   6.163269   6.468957
    10  C    4.415900   3.753293   4.789125   6.056720   6.407323
    11  N    3.123926   2.520314   3.603722   4.763249   5.033995
    12  O    3.367982   3.878920   5.209913   5.919297   5.516377
    13  H    5.077191   4.175029   4.957829   6.293071   6.849307
    14  H    5.298471   4.528280   5.430316   6.740982   7.203269
    15  H    4.814989   4.504620   5.717713   6.877063   6.998435
    16  H    2.826913   2.731059   3.961557   4.903883   4.885549
    17  H    3.753898   3.015536   3.784607   4.919752   5.343876
    18  H    5.000995   4.559736   5.673110   6.868258   7.082860
    19  H    3.420138   2.131310   2.575867   3.962791   4.727777
    20  H    1.091951   2.170987   3.393338   3.817301   3.261214
    21  H    3.263739   3.827075   3.389057   2.164059   1.090223
    22  H    3.813695   3.402333   2.164833   1.088117   2.157019
    23  H    3.389284   2.164002   1.090995   2.155726   3.385722
    24  C    3.714351   3.073512   3.768372   4.803505   5.173818
    25  H    2.844808   2.744395   4.014836   4.987599   4.964312
    26  H    3.355344   4.098083   5.331190   5.838421   5.269420
    27  H    4.175605   4.718520   6.081336   6.800289   6.350820
    28  H    2.653369   3.993697   4.580430   4.135130   2.860684
    29  O    3.411850   4.763373   5.447209   5.054173   3.795817
    30  H    4.008014   5.398007   6.100927   5.669090   4.357394
    31  O    3.642013   4.610380   5.588388   5.739823   4.941831
    32  H    3.434810   4.606211   5.505352   5.457515   4.471092
    33  H    4.565710   5.497560   6.412531   6.508681   5.694019
    34  H    4.499964   4.061128   4.832421   5.800282   6.047358
    35  H    3.194189   2.751764   3.305013   4.097819   4.355781
    36  H    4.360893   3.420395   3.797290   4.927537   5.566261
    37  O    6.283425   7.218911   8.030719   7.998120   7.125543
    38  H    6.812909   7.669115   8.360977   8.270934   7.452005
    39  H    6.923979   7.952330   8.793200   8.705783   7.739734
                    6          7          8          9         10
     6  N    0.000000
     7  C    3.778380   0.000000
     8  C    4.463125   1.530650   0.000000
     9  C    5.742550   2.437573   1.546602   0.000000
    10  C    5.726655   2.368287   2.454272   1.539165   0.000000
    11  N    4.377332   1.508212   2.357436   2.402603   1.495450
    12  O    4.355182   3.573525   3.671021   3.701561   3.317423
    13  H    6.348255   2.764683   3.077122   2.202809   1.096165
    14  H    6.599703   3.094799   2.201457   1.094251   2.173124
    15  H    6.110378   3.276243   2.191774   1.094162   2.186767
    16  H    4.021668   2.161058   1.096303   2.193882   3.093854
    17  H    4.876938   2.172209   1.093763   2.217937   3.309787
    18  H    6.281901   3.308611   3.320835   2.229661   1.094017
    19  H    4.533896   1.099504   2.164560   2.796265   2.608380
    20  H    2.058248   2.773607   3.076045   4.090018   4.148047
    21  H    2.065732   5.332096   6.167833   7.534324   7.474975
    22  H    3.370524   4.682058   5.747125   7.059961   6.931977
    23  H    3.870525   2.737619   3.905375   4.994127   4.830670
    24  C    4.729511   2.522105   3.740810   3.757960   2.503828
    25  H    4.071016   2.101564   2.600570   2.698101   2.039677
    26  H    4.089254   4.115710   4.425370   4.625165   4.142920
    27  H    5.134719   4.295507   4.109789   3.922666   3.703009
    28  H    1.844260   5.140047   5.628092   6.718085   6.657593
    29  O    2.781410   5.778862   6.217310   7.164220   7.034730
    30  H    3.354733   6.388385   6.644537   7.616220   7.638628
    31  O    3.861345   5.069860   5.647778   6.073872   5.501294
    32  H    3.363333   5.297191   5.822211   6.457232   6.062334
    33  H    4.690714   5.932079   6.544753   6.868608   6.188535
    34  H    5.490639   3.445325   4.449194   4.160338   2.725447
    35  H    3.985758   2.782917   4.144975   4.494098   3.429940
    36  H    5.343483   2.758251   4.034614   4.007658   2.773489
    37  O    6.235727   7.680500   8.324461   8.569268   7.799179
    38  H    6.697731   8.173479   8.946610   9.194458   8.317019
    39  H    6.809209   8.435072   8.975963   9.229196   8.549298
                   11         12         13         14         15
    11  N    0.000000
    12  O    2.694313   0.000000
    13  H    2.101295   4.324382   0.000000
    14  H    3.242546   4.785288   2.355025   0.000000
    15  H    3.049779   3.496115   3.021095   1.764242   0.000000
    16  H    2.795398   3.208068   3.925309   3.009840   2.348817
    17  H    3.309726   4.732039   3.701030   2.395801   2.870275
    18  H    2.115142   3.083349   1.781924   2.869907   2.401295
    19  H    2.082130   4.548269   2.546561   3.102573   3.817989
    20  H    3.005719   2.473323   4.991757   5.080517   4.253477
    21  H    6.082190   6.357836   7.925594   8.277559   8.024327
    22  H    5.678899   6.980348   7.050737   7.546528   7.834559
    23  H    3.849005   5.883135   4.761884   5.315934   5.929977
    24  C    1.477417   3.443247   2.614779   4.445746   4.433005
    25  H    1.050392   1.651167   2.922721   3.718117   2.989460
    26  H    3.283476   0.993380   5.079076   5.711511   4.476811
    27  H    3.415990   0.958844   4.753379   4.969045   3.449464
    28  H    5.357081   4.344328   7.440260   7.699776   6.829303
    29  O    5.782873   4.349795   7.872049   8.194621   7.164156
    30  H    6.467756   4.864312   8.527830   8.637079   7.521571
    31  O    4.388023   2.602483   6.324789   7.151221   6.033043
    32  H    4.877110   3.152260   6.907418   7.533361   6.418381
    33  H    5.132010   3.306038   6.975029   7.940617   6.793541
    34  H    2.101252   3.393969   2.864599   4.862941   4.659436
    35  H    2.104148   3.533521   3.645578   5.259823   5.129799
    36  H    2.108824   4.471127   2.438722   4.455010   4.853159
    37  O    6.803267   4.962705   8.535495   9.632440   8.446991
    38  H    7.279272   5.690433   8.967640  10.236278   9.149394
    39  H    7.594569   5.553594   9.337836  10.305579   9.022427
                   16         17         18         19         20
    16  H    0.000000
    17  H    1.767364   0.000000
    18  H    3.728107   4.248072   0.000000
    19  H    3.057716   2.425908   3.656024   0.000000
    20  H    2.436827   3.814495   4.552077   3.823193   0.000000
    21  H    5.868479   6.362524   8.116202   5.804721   4.120398
    22  H    5.895655   5.714217   7.780216   4.664539   4.904085
    23  H    4.447552   3.858372   5.796592   2.328078   4.314846
    24  C    4.200692   4.580437   2.853687   2.688484   3.811652
    25  H    2.613475   3.665598   2.258306   2.963082   2.396708
    26  H    3.909474   5.455146   3.915759   5.091543   2.507593
    27  H    3.562749   5.145280   3.276451   5.260621   3.189020
    28  H    4.936133   6.199367   6.958360   6.046265   2.628140
    29  O    5.468912   6.880100   7.192351   6.730137   3.148760
    30  H    5.792096   7.247575   7.786043   7.374380   3.661754
    31  O    5.115130   6.602550   5.345422   5.992160   3.067650
    32  H    5.181026   6.685559   6.026112   6.255279   2.923327
    33  H    6.035244   7.522350   5.917491   6.811361   4.026495
    34  H    4.828791   5.376201   2.643677   3.666828   4.398700
    35  H    4.433549   4.949447   3.788042   3.077003   3.450721
    36  H    4.714551   4.688472   3.299399   2.463668   4.630496
    37  O    7.813733   9.311789   7.410659   8.514073   5.791665
    38  H    8.509796   9.927067   7.942400   8.931643   6.438613
    39  H    8.381789   9.952697   8.130590   9.316059   6.370188
                   21         22         23         24         25
    21  H    0.000000
    22  H    2.500795   0.000000
    23  H    4.303239   2.502988   0.000000
    24  C    6.147881   5.584825   3.902313   0.000000
    25  H    5.955168   5.991909   4.493814   2.059112   0.000000
    26  H    5.997977   6.881620   6.104242   3.718664   2.274081
    27  H    7.164181   7.872289   6.739464   4.246413   2.425958
    28  H    3.002737   5.002608   5.665835   5.682060   4.727622
    29  O    3.867580   5.912957   6.519462   6.062467   5.032190
    30  H    4.329334   6.508617   7.186153   6.881278   5.676107
    31  O    5.432013   6.696690   6.470211   4.423525   3.523184
    32  H    4.829653   6.398141   6.480020   5.020105   4.029454
    33  H    6.088785   7.413898   7.269530   4.998010   4.290295
    34  H    6.974088   6.589533   4.992002   1.093889   2.375295
    35  H    5.257426   4.873372   3.632675   1.093878   2.383691
    36  H    6.548368   5.556175   3.619751   1.095415   2.967298
    37  O    7.343076   8.813235   8.874272   6.489835   5.996020
    38  H    7.610974   9.006026   9.161482   6.781440   6.561111
    39  H    7.885366   9.527048   9.678911   7.380370   6.730910
                   26         27         28         29         30
    26  H    0.000000
    27  H    1.575618   0.000000
    28  H    3.767809   4.947197   0.000000
    29  O    3.627555   4.840237   0.980611   0.000000
    30  H    4.203436   5.218635   1.565611   0.959270   0.000000
    31  O    1.622086   3.125502   3.055569   2.665321   3.382578
    32  H    2.246395   3.655694   2.203810   1.691571   2.415203
    33  H    2.326137   3.693908   3.725204   3.166439   3.826983
    34  H    3.632272   4.070084   6.175443   6.400641   7.220338
    35  H    3.540105   4.442722   4.906266   5.304092   6.177180
    36  H    4.802065   5.242154   6.509030   6.975381   7.800470
    37  O    4.018668   5.190841   5.043769   4.303677   4.812104
    38  H    4.756219   5.991557   5.590642   4.902570   5.468762
    39  H    4.620479   5.661856   5.428983   4.580617   4.915568
                   31         32         33         34         35
    31  O    0.000000
    32  H    0.985439   0.000000
    33  H    0.959133   1.563492   0.000000
    34  H    4.363667   5.124612   4.776228   0.000000
    35  H    3.864429   4.360019   4.435568   1.788164   0.000000
    36  H    5.481377   6.037338   6.045656   1.794246   1.796375
    37  O    2.739149   3.060104   1.792721   6.111767   5.909202
    38  H    3.427968   3.748957   2.505944   6.376054   6.145522
    39  H    3.391622   3.547127   2.506584   7.005612   6.814786
                   36         37         38         39
    36  H    0.000000
    37  O    7.491281   0.000000
    38  H    7.715917   0.973612   0.000000
    39  H    8.402428   0.973609   1.514834   0.000000
 Stoichiometry    C10H23N2O4(1+)
 Framework group  C1[X(C10H23N2O4)]
 Deg. of freedom   111
 Full point group                 C1      NOp   1
 Largest Abelian subgroup         C1      NOp   1
 Largest concise Abelian subgroup C1      NOp   1
                         Standard orientation:                         
 ---------------------------------------------------------------------
 Center     Atomic      Atomic             Coordinates (Angstroms)
 Number     Number       Type             X           Y           Z
 ---------------------------------------------------------------------
      1          6           0        0.033125    1.211798   -0.567714
      2          6           0        1.250315    1.207882    0.117389
      3          6           0        1.588925    2.351464    0.842846
      4          6           0        0.720380    3.436976    0.849619
      5          6           0       -0.472919    3.334780    0.139782
      6          7           0       -0.812774    2.243230   -0.552150
      7          6           0        2.181330    0.025315    0.074227
      8          6           0        2.686258   -0.424866   -1.298826
      9          6           0        3.137469   -1.889673   -1.092126
     10          6           0        2.570638   -2.301831    0.278223
     11          7           0        1.565349   -1.244407    0.606277
     12          8           0       -0.549129   -2.095035   -0.830642
     13          1           0        3.332393   -2.284317    1.066259
     14          1           0        4.227754   -1.982745   -1.090944
     15          1           0        2.754003   -2.534779   -1.888356
     16          1           0        1.870727   -0.362909   -2.028861
     17          1           0        3.491670    0.228504   -1.646301
     18          1           0        2.069585   -3.274276    0.291308
     19          1           0        3.036363    0.223389    0.736491
     20          1           0       -0.288290    0.344016   -1.147371
     21          1           0       -1.187895    4.157721    0.127010
     22          1           0        0.956926    4.345858    1.399144
     23          1           0        2.528317    2.397611    1.395731
     24          6           0        1.154476   -1.200302    2.024726
     25          1           0        0.718721   -1.483189    0.032232
     26          1           0       -1.455591   -1.795181   -0.556383
     27          1           0       -0.658202   -2.807739   -1.462732
     28          1           0       -2.491230    1.777218   -1.157884
     29          8           0       -3.303546    1.241512   -1.279376
     30          1           0       -3.639011    1.418619   -2.160452
     31          8           0       -2.775769   -1.035511    0.001466
     32          1           0       -3.077910   -0.242405   -0.499317
     33          1           0       -3.557571   -1.445465    0.376512
     34          1           0        0.750887   -2.178086    2.303379
     35          1           0        0.382053   -0.435407    2.146656
     36          1           0        2.025545   -0.962374    2.644859
     37          8           0       -5.194923   -1.945932    0.907980
     38          1           0       -5.594246   -1.821804    1.787215
     39          1           0       -5.976070   -2.103530    0.348617
 ---------------------------------------------------------------------
 Rotational constants (GHZ):           0.4660393           0.3159514           0.2240287
 Standard basis: Aug-CC-pVDZ (5D, 7F)
 There are   607 symmetry adapted cartesian basis functions of A   symmetry.
 There are   575 symmetry adapted basis functions of A   symmetry.
   575 basis functions,   941 primitive gaussians,   607 cartesian basis functions
    64 alpha electrons       64 beta electrons
       nuclear repulsion energy      1217.1574188484 Hartrees.
 NAtoms=   39 NActive=   39 NUniq=   39 SFac= 1.00D+00 NAtFMM=   60 NAOKFM=F Big=F
 Integral buffers will be    131072 words long.
 Raffenetti 2 integral format.
 Two-electron integral symmetry is turned on.
 Nuclear repulsion after empirical dispersion term =     1217.1277642989 Hartrees.
 One-electron integrals computed using PRISM.
 NBasis=   575 RedAO= T EigKep=  2.17D-06  NBF=   575
 NBsUse=   575 1.00D-06 EigRej= -1.00D+00 NBFU=   575
 ExpMin= 2.97D-02 ExpMax= 1.17D+04 ExpMxC= 4.01D+02 IAcc=3 IRadAn=         5 AccDes= 0.00D+00
 Harris functional with IExCor= 4639 and IRadAn=       5 diagonalized for initial guess.
 HarFok:  IExCor= 4639 AccDes= 0.00D+00 IRadAn=         5 IDoV= 1 UseB2=F ITyADJ=14
 ICtDFT=  3500011 ScaDFX=  1.000000  1.000000  1.000000  1.000000
 FoFCou: FMM=F IPFlag=           0 FMFlag=      100000 FMFlg1=           0
         NFxFlg=           0 DoJE=T BraDBF=F KetDBF=T FulRan=T
         wScrn=  0.000000 ICntrl=       500 IOpCl=  0 I1Cent=   200000004 NGrid=           0
         NMat0=    1 NMatS0=      1 NMatT0=    0 NMatD0=    1 NMtDS0=    0 NMtDT0=    0
 Petite list used in FoFCou.
 Requested convergence on RMS density matrix=1.00D-08 within 128 cycles.
 Requested convergence on MAX density matrix=1.00D-06.
 Requested convergence on             energy=1.00D-06.
 No special actions if energy rises.
 SCF Done:  E(RwB97XD) =  -805.032828692     A.U. after   15 cycles
            NFock= 15  Conv=0.33D-08     -V/T= 2.0063

 **********************************************************************

            Population analysis using the SCF density.

 **********************************************************************

 Orbital symmetries:
       Occupied  (A) (A) (A) (A) (A) (A) (A) (A) (A) (A) (A) (A)
                 (A) (A) (A) (A) (A) (A) (A) (A) (A) (A) (A) (A)
                 (A) (A) (A) (A) (A) (A) (A) (A) (A) (A) (A) (A)
                 (A) (A) (A) (A) (A) (A) (A) (A) (A) (A) (A) (A)
                 (A) (A) (A) (A) (A) (A) (A) (A) (A) (A) (A) (A)
                 (A) (A) (A) (A)
       Virtual   (A) (A) (A) (A) (A) (A) (A) (A) (A) (A) (A) (A)
                 (A) (A) (A) (A) (A) (A) (A) (A) (A) (A) (A) (A)
                 (A) (A) (A) (A) (A) (A) (A) (A) (A) (A) (A) (A)
                 (A) (A) (A) (A) (A) (A) (A) (A) (A) (A) (A) (A)
                 (A) (A) (A) (A) (A) (A) (A) (A) (A) (A) (A) (A)
                 (A) (A) (A) (A) (A) (A) (A) (A) (A) (A) (A) (A)
                 (A) (A) (A) (A) (A) (A) (A) (A) (A) (A) (A) (A)
                 (A) (A) (A) (A) (A) (A) (A) (A) (A) (A) (A) (A)
                 (A) (A) (A) (A) (A) (A) (A) (A) (A) (A) (A) (A)
                 (A) (A) (A) (A) (A) (A) (A) (A) (A) (A) (A) (A)
                 (A) (A) (A) (A) (A) (A) (A) (A) (A) (A) (A) (A)
                 (A) (A) (A) (A) (A) (A) (A) (A) (A) (A) (A) (A)
                 (A) (A) (A) (A) (A) (A) (A) (A) (A) (A) (A) (A)
                 (A) (A) (A) (A) (A) (A) (A) (A) (A) (A) (A) (A)
                 (A) (A) (A) (A) (A) (A) (A) (A) (A) (A) (A) (A)
                 (A) (A) (A) (A) (A) (A) (A) (A) (A) (A) (A) (A)
                 (A) (A) (A) (A) (A) (A) (A) (A) (A) (A) (A) (A)
                 (A) (A) (A) (A) (A) (A) (A) (A) (A) (A) (A) (A)
                 (A) (A) (A) (A) (A) (A) (A) (A) (A) (A) (A) (A)
                 (A) (A) (A) (A) (A) (A) (A) (A) (A) (A) (A) (A)
                 (A) (A) (A) (A) (A) (A) (A) (A) (A) (A) (A) (A)
                 (A) (A) (A) (A) (A) (A) (A) (A) (A) (A) (A) (A)
                 (A) (A) (A) (A) (A) (A) (A) (A) (A) (A) (A) (A)
                 (A) (A) (A) (A) (A) (A) (A) (A) (A) (A) (A) (A)
                 (A) (A) (A) (A) (A) (A) (A) (A) (A) (A) (A) (A)
                 (A) (A) (A) (A) (A) (A) (A) (A) (A) (A) (A) (A)
                 (A) (A) (A) (A) (A) (A) (A) (A) (A) (A) (A) (A)
                 (A) (A) (A) (A) (A) (A) (A) (A) (A) (A) (A) (A)
                 (A) (A) (A) (A) (A) (A) (A) (A) (A) (A) (A) (A)
                 (A) (A) (A) (A) (A) (A) (A) (A) (A) (A) (A) (A)
                 (A) (A) (A) (A) (A) (A) (A) (A) (A) (A) (A) (A)
                 (A) (A) (A) (A) (A) (A) (A) (A) (A) (A) (A) (A)
                 (A) (A) (A) (A) (A) (A) (A) (A) (A) (A) (A) (A)
                 (A) (A) (A) (A) (A) (A) (A) (A) (A) (A) (A) (A)
                 (A) (A) (A) (A) (A) (A) (A) (A) (A) (A) (A) (A)
                 (A) (A) (A) (A) (A) (A) (A) (A) (A) (A) (A) (A)
                 (A) (A) (A) (A) (A) (A) (A) (A) (A) (A) (A) (A)
                 (A) (A) (A) (A) (A) (A) (A) (A) (A) (A) (A) (A)
                 (A) (A) (A) (A) (A) (A) (A) (A) (A) (A) (A) (A)
                 (A) (A) (A) (A) (A) (A) (A) (A) (A) (A) (A) (A)
                 (A) (A) (A) (A) (A) (A) (A) (A) (A) (A) (A) (A)
                 (A) (A) (A) (A) (A) (A) (A) (A) (A) (A) (A) (A)
                 (A) (A) (A) (A) (A) (A) (A)
 The electronic state is 1-A.
 Alpha  occ. eigenvalues --  -19.38591 -19.38546 -19.35758 -19.34092 -14.68383
 Alpha  occ. eigenvalues --  -14.57946 -10.49470 -10.48190 -10.47587 -10.46148
 Alpha  occ. eigenvalues --  -10.45759 -10.44855 -10.44686 -10.43736 -10.43654
 Alpha  occ. eigenvalues --  -10.43041  -1.25283  -1.22845  -1.22298  -1.20393
 Alpha  occ. eigenvalues --   -1.18141  -1.17660  -1.06165  -1.04105  -1.00907
 Alpha  occ. eigenvalues --   -0.96522  -0.94031  -0.88816  -0.85404  -0.84615
 Alpha  occ. eigenvalues --   -0.83087  -0.77502  -0.74773  -0.74451  -0.73116
 Alpha  occ. eigenvalues --   -0.71903  -0.71869  -0.71591  -0.70298  -0.69345
 Alpha  occ. eigenvalues --   -0.68822  -0.66097  -0.65097  -0.64808  -0.62626
 Alpha  occ. eigenvalues --   -0.62498  -0.61935  -0.61684  -0.61036  -0.60728
 Alpha  occ. eigenvalues --   -0.58653  -0.57837  -0.57636  -0.56922  -0.56405
 Alpha  occ. eigenvalues --   -0.55040  -0.53876  -0.52507  -0.51047  -0.49470
 Alpha  occ. eigenvalues --   -0.49356  -0.48223  -0.47223  -0.46321
 Alpha virt. eigenvalues --   -0.09157  -0.08252  -0.06513  -0.05525  -0.04819
 Alpha virt. eigenvalues --   -0.04501  -0.03840  -0.02964  -0.02835  -0.02751
 Alpha virt. eigenvalues --   -0.02326  -0.01717  -0.01225  -0.00812  -0.00559
 Alpha virt. eigenvalues --   -0.00433   0.00111   0.00958   0.01092   0.01488
 Alpha virt. eigenvalues --    0.01547   0.01941   0.02222   0.02918   0.03009
 Alpha virt. eigenvalues --    0.03512   0.03992   0.04093   0.04524   0.04817
 Alpha virt. eigenvalues --    0.05005   0.05113   0.05607   0.05811   0.05969
 Alpha virt. eigenvalues --    0.06187   0.06281   0.06406   0.06802   0.06989
 Alpha virt. eigenvalues --    0.07240   0.07382   0.07697   0.08040   0.08421
 Alpha virt. eigenvalues --    0.08598   0.08887   0.09196   0.09700   0.09803
 Alpha virt. eigenvalues --    0.10339   0.10579   0.11061   0.11294   0.11559
 Alpha virt. eigenvalues --    0.11821   0.12020   0.12569   0.12638   0.12908
 Alpha virt. eigenvalues --    0.13154   0.13551   0.14259   0.14316   0.14723
 Alpha virt. eigenvalues --    0.15276   0.15493   0.15902   0.16196   0.16413
 Alpha virt. eigenvalues --    0.16522   0.16639   0.16955   0.17444   0.17711
 Alpha virt. eigenvalues --    0.17939   0.18157   0.18526   0.18788   0.18968
 Alpha virt. eigenvalues --    0.19275   0.19606   0.19889   0.20365   0.20527
 Alpha virt. eigenvalues --    0.21089   0.21502   0.21780   0.22102   0.22162
 Alpha virt. eigenvalues --    0.22372   0.22713   0.22989   0.23305   0.23700
 Alpha virt. eigenvalues --    0.24006   0.24422   0.24869   0.25198   0.25411
 Alpha virt. eigenvalues --    0.25592   0.25912   0.26395   0.26865   0.27323
 Alpha virt. eigenvalues --    0.27503   0.27893   0.28412   0.28892   0.29361
 Alpha virt. eigenvalues --    0.29435   0.29620   0.30385   0.30503   0.30838
 Alpha virt. eigenvalues --    0.31362   0.31438   0.32087   0.32624   0.32811
 Alpha virt. eigenvalues --    0.33073   0.33316   0.33493   0.34332   0.34708
 Alpha virt. eigenvalues --    0.34852   0.35072   0.35737   0.35951   0.36458
 Alpha virt. eigenvalues --    0.37120   0.37296   0.37923   0.38256   0.38653
 Alpha virt. eigenvalues --    0.38943   0.39416   0.39845   0.40484   0.40730
 Alpha virt. eigenvalues --    0.41049   0.41549   0.41926   0.42603   0.42951
 Alpha virt. eigenvalues --    0.43185   0.43886   0.44258   0.44520   0.44901
 Alpha virt. eigenvalues --    0.45243   0.45641   0.45754   0.46045   0.46468
 Alpha virt. eigenvalues --    0.47116   0.47546   0.47905   0.48445   0.48703
 Alpha virt. eigenvalues --    0.48909   0.49226   0.49778   0.49898   0.50264
 Alpha virt. eigenvalues --    0.50858   0.51253   0.51501   0.51866   0.52203
 Alpha virt. eigenvalues --    0.52517   0.52591   0.53530   0.53650   0.53894
 Alpha virt. eigenvalues --    0.54173   0.54550   0.55140   0.55277   0.55709
 Alpha virt. eigenvalues --    0.56302   0.56534   0.56905   0.57574   0.57741
 Alpha virt. eigenvalues --    0.58452   0.58557   0.59200   0.59348   0.59745
 Alpha virt. eigenvalues --    0.60794   0.60907   0.61268   0.61554   0.62007
 Alpha virt. eigenvalues --    0.62276   0.62858   0.63349   0.63822   0.63865
 Alpha virt. eigenvalues --    0.64724   0.65269   0.66025   0.66707   0.66872
 Alpha virt. eigenvalues --    0.67282   0.67442   0.68071   0.68131   0.68969
 Alpha virt. eigenvalues --    0.69418   0.69583   0.69894   0.70500   0.70920
 Alpha virt. eigenvalues --    0.71461   0.72379   0.72773   0.72971   0.73163
 Alpha virt. eigenvalues --    0.73784   0.74044   0.74826   0.74902   0.75345
 Alpha virt. eigenvalues --    0.76108   0.77069   0.77304   0.77725   0.78212
 Alpha virt. eigenvalues --    0.79176   0.79361   0.80021   0.80458   0.81209
 Alpha virt. eigenvalues --    0.81493   0.81829   0.82922   0.83203   0.83707
 Alpha virt. eigenvalues --    0.84657   0.85258   0.85399   0.86024   0.86740
 Alpha virt. eigenvalues --    0.87771   0.88075   0.88919   0.90161   0.90408
 Alpha virt. eigenvalues --    0.90903   0.91637   0.91881   0.92389   0.93279
 Alpha virt. eigenvalues --    0.94109   0.94240   0.95463   0.96166   0.96478
 Alpha virt. eigenvalues --    0.97393   0.98431   0.99733   1.00487   1.01149
 Alpha virt. eigenvalues --    1.01470   1.02066   1.02573   1.03610   1.04603
 Alpha virt. eigenvalues --    1.04906   1.05826   1.06517   1.07878   1.08095
 Alpha virt. eigenvalues --    1.08764   1.09178   1.09999   1.10494   1.10837
 Alpha virt. eigenvalues --    1.11923   1.12445   1.13321   1.14881   1.15164
 Alpha virt. eigenvalues --    1.16117   1.17050   1.18625   1.18750   1.19416
 Alpha virt. eigenvalues --    1.19978   1.20706   1.21122   1.22188   1.22998
 Alpha virt. eigenvalues --    1.23872   1.25619   1.26430   1.27122   1.29030
 Alpha virt. eigenvalues --    1.30398   1.30865   1.31793   1.32402   1.33059
 Alpha virt. eigenvalues --    1.33632   1.34066   1.35818   1.36329   1.36927
 Alpha virt. eigenvalues --    1.37495   1.39486   1.39839   1.40972   1.41551
 Alpha virt. eigenvalues --    1.41764   1.43312   1.43817   1.45786   1.46135
 Alpha virt. eigenvalues --    1.46957   1.47275   1.48305   1.49359   1.50739
 Alpha virt. eigenvalues --    1.50803   1.52027   1.53162   1.53733   1.53994
 Alpha virt. eigenvalues --    1.54296   1.55056   1.56791   1.57489   1.58160
 Alpha virt. eigenvalues --    1.58795   1.59730   1.59928   1.61148   1.62675
 Alpha virt. eigenvalues --    1.63573   1.63893   1.65333   1.65862   1.67634
 Alpha virt. eigenvalues --    1.68234   1.69042   1.69579   1.69817   1.70704
 Alpha virt. eigenvalues --    1.71706   1.72083   1.73633   1.74070   1.74370
 Alpha virt. eigenvalues --    1.74896   1.75580   1.76367   1.77137   1.77531
 Alpha virt. eigenvalues --    1.78698   1.79890   1.81117   1.81246   1.81775
 Alpha virt. eigenvalues --    1.82204   1.82844   1.83348   1.83975   1.85226
 Alpha virt. eigenvalues --    1.86066   1.86659   1.87181   1.88097   1.88759
 Alpha virt. eigenvalues --    1.89939   1.90755   1.91172   1.91340   1.93102
 Alpha virt. eigenvalues --    1.93655   1.94557   1.96157   1.96646   1.97510
 Alpha virt. eigenvalues --    1.98385   1.99182   1.99680   2.00158   2.00997
 Alpha virt. eigenvalues --    2.02439   2.03885   2.04112   2.05290   2.06503
 Alpha virt. eigenvalues --    2.07115   2.08522   2.09170   2.10684   2.11130
 Alpha virt. eigenvalues --    2.11915   2.12453   2.13445   2.14035   2.14557
 Alpha virt. eigenvalues --    2.15053   2.15991   2.17363   2.18567   2.18925
 Alpha virt. eigenvalues --    2.19550   2.21293   2.21806   2.22950   2.23529
 Alpha virt. eigenvalues --    2.25314   2.26565   2.26867   2.28351   2.28676
 Alpha virt. eigenvalues --    2.29964   2.30952   2.31711   2.33286   2.34390
 Alpha virt. eigenvalues --    2.35348   2.35790   2.37450   2.38588   2.39806
 Alpha virt. eigenvalues --    2.42201   2.43269   2.44057   2.46433   2.47131
 Alpha virt. eigenvalues --    2.48186   2.49942   2.50512   2.51708   2.53104
 Alpha virt. eigenvalues --    2.54513   2.54802   2.56272   2.56618   2.58245
 Alpha virt. eigenvalues --    2.58415   2.59707   2.60286   2.60776   2.62000
 Alpha virt. eigenvalues --    2.63997   2.65554   2.66497   2.67607   2.70458
 Alpha virt. eigenvalues --    2.71212   2.71968   2.72567   2.73848   2.74882
 Alpha virt. eigenvalues --    2.75403   2.77022   2.77303   2.78969   2.80964
 Alpha virt. eigenvalues --    2.81497   2.83203   2.85646   2.85954   2.87027
 Alpha virt. eigenvalues --    2.87491   2.89660   2.90192   2.91509   2.93187
 Alpha virt. eigenvalues --    2.93337   2.96392   2.98070   3.03660   3.09223
 Alpha virt. eigenvalues --    3.11380   3.13498   3.15471   3.24915   3.27937
 Alpha virt. eigenvalues --    3.30142   3.36174   3.37013   3.40577   3.41949
 Alpha virt. eigenvalues --    3.42767   3.45254   3.46190   3.46972   3.51858
 Alpha virt. eigenvalues --    3.54481   3.54837   3.57931   3.60729   3.64390
 Alpha virt. eigenvalues --    3.66911   3.76906   3.85010   3.88680   3.90408
 Alpha virt. eigenvalues --    3.99384   4.05408   4.10726   4.15300   4.26719
 Alpha virt. eigenvalues --    4.76917
          Condensed to atoms (all electrons):
               1          2          3          4          5          6
     1  C   15.120052  -3.622325  -1.603760  -0.231047  -1.253152  -0.221603
     2  C   -3.622325  22.387601  -8.686609   0.552087  -0.882420  -0.242026
     3  C   -1.603760  -8.686609  22.424481  -4.335857   1.680638  -0.643060
     4  C   -0.231047   0.552087  -4.335857  11.577977  -2.575963   0.364157
     5  C   -1.253152  -0.882420   1.680638  -2.575963   9.852722   0.144239
     6  N   -0.221603  -0.242026  -0.643060   0.364157   0.144239   7.749348
     7  C   -1.079287  -8.590185  -1.437399   0.641128  -0.920123   0.620553
     8  C   -0.677446   0.385297  -0.247642   0.049705  -0.132880  -0.041685
     9  C    0.043755   0.315343  -0.004075  -0.020834   0.009221   0.009305
    10  C   -0.072749  -0.281509  -0.012058  -0.014133  -0.020042   0.027682
    11  N    0.080807   1.229819  -0.241043  -0.165289   0.122181  -0.064773
    12  O   -0.082300  -0.039657  -0.013692   0.004972  -0.007235   0.002651
    13  H    0.006900   0.111844   0.009300   0.006589  -0.004934  -0.002008
    14  H    0.026741   0.006471   0.000503  -0.007290   0.004143  -0.000279
    15  H   -0.023035  -0.152735   0.004700   0.002149  -0.003621   0.000478
    16  H   -0.179939   0.101176   0.014535  -0.021061   0.000743   0.021994
    17  H    0.252732   0.396589  -0.030739   0.000229   0.008018  -0.019487
    18  H   -0.004104  -0.091579   0.022506  -0.002291   0.002030   0.002644
    19  H   -0.201703   1.083758   0.038465  -0.062306   0.051874  -0.000891
    20  H   -0.941417  -0.578621  -0.245405   0.073710  -0.088680  -0.048925
    21  H    0.151412  -0.114193   0.262503   0.044051  -0.442287  -0.156664
    22  H    0.022241  -0.079544   0.616648  -1.166507   0.382637  -0.078745
    23  H    0.142215   1.190289  -2.537889   0.686322  -0.219333  -0.029228
    24  C   -0.033638   0.494510  -0.190682   0.074520  -0.023218  -0.006940
    25  H   -0.205313  -0.113173  -0.020011  -0.005610   0.007692   0.001094
    26  H   -0.011035   0.013801   0.004642   0.001646  -0.007729  -0.005866
    27  H    0.016932  -0.005869  -0.002333   0.000425   0.000333   0.000469
    28  H   -0.129301   0.009933   0.013610  -0.054933   0.070835   0.133002
    29  O   -0.010174  -0.052286   0.011538  -0.008255   0.027974  -0.035905
    30  H    0.003207   0.008664  -0.002646   0.006821  -0.011363  -0.005202
    31  O   -0.117354   0.069503  -0.024181  -0.001061   0.010138   0.018419
    32  H   -0.019599   0.017259  -0.014484   0.008827  -0.006325   0.009108
    33  H    0.026701  -0.011860   0.002214  -0.001997   0.002530  -0.004679
    34  H   -0.043585   0.037990  -0.023549   0.010341  -0.002817   0.001626
    35  H    0.160499  -0.033500  -0.013313   0.062749  -0.038375  -0.011095
    36  H   -0.014035   0.114322   0.014200  -0.026706   0.014938  -0.000853
    37  O   -0.000460   0.001031   0.000369  -0.000059   0.000080  -0.000231
    38  H   -0.000322   0.000306  -0.000105   0.000059  -0.000154   0.000022
    39  H    0.000035  -0.000064   0.000139  -0.000032   0.000009  -0.000041
               7          8          9         10         11         12
     1  C   -1.079287  -0.677446   0.043755  -0.072749   0.080807  -0.082300
     2  C   -8.590185   0.385297   0.315343  -0.281509   1.229819  -0.039657
     3  C   -1.437399  -0.247642  -0.004075  -0.012058  -0.241043  -0.013692
     4  C    0.641128   0.049705  -0.020834  -0.014133  -0.165289   0.004972
     5  C   -0.920123  -0.132880   0.009221  -0.020042   0.122181  -0.007235
     6  N    0.620553  -0.041685   0.009305   0.027682  -0.064773   0.002651
     7  C   25.393258  -1.661296   0.074308  -0.382542  -4.376501   0.129440
     8  C   -1.661296   7.881371  -0.699816   0.532409  -0.429603   0.012195
     9  C    0.074308  -0.699816   6.191495  -0.082803  -0.543662   0.036186
    10  C   -0.382542   0.532409  -0.082803   5.524932   0.209756  -0.009983
    11  N   -4.376501  -0.429603  -0.543662   0.209756  13.189599  -0.307324
    12  O    0.129440   0.012195   0.036186  -0.009983  -0.307324   8.122270
    13  H    0.173775   0.037410  -0.010786  -0.333539  -0.044314  -0.010342
    14  H   -0.250624   0.218677  -0.182043   0.201270   0.040631  -0.005181
    15  H    0.411835   0.149929  -0.346820   0.048217  -0.089639   0.023752
    16  H   -0.339188  -0.001512   0.227423   0.035396  -0.089510   0.004278
    17  H   -0.076578  -0.916465   0.149740  -0.146430   0.245902  -0.001547
    18  H    0.396221   0.006154   0.160989  -0.124477  -1.041389   0.062822
    19  H   -3.276741   0.697869  -0.077719   0.066852  -0.302005   0.005595
    20  H    0.183645   0.046010   0.028294  -0.024365  -0.150340   0.025634
    21  H   -0.027862   0.001624   0.000401  -0.000633   0.005484  -0.000238
    22  H    0.034195   0.000394  -0.000014   0.000157  -0.002447   0.000155
    23  H   -0.102421  -0.046101  -0.002815  -0.006371   0.003828  -0.001297
    24  C   -0.795947  -0.077642  -0.057408  -0.090127   0.914882  -0.004631
    25  H    0.105008  -0.089977  -0.005006  -0.319581   0.370696  -0.077909
    26  H    0.016022   0.011415   0.023301  -0.000386   0.007802   0.289141
    27  H   -0.008977  -0.002761  -0.007860   0.000138   0.022246   0.362875
    28  H    0.021026  -0.005656   0.000008  -0.000679  -0.006722  -0.000207
    29  O    0.010762  -0.001374  -0.000882   0.000628  -0.001380   0.000076
    30  H   -0.003656   0.001422   0.000086   0.000086   0.000990   0.000719
    31  O    0.002782   0.002892  -0.001354  -0.001446  -0.009986  -0.072895
    32  H    0.003410   0.002228  -0.001647  -0.000253  -0.000713   0.005251
    33  H   -0.005444  -0.002425  -0.000865   0.001435   0.009671   0.003908
    34  H    0.048797  -0.078676   0.076867  -0.056345  -0.157845   0.022184
    35  H    0.033545   0.072614  -0.035696  -0.081059  -0.084283   0.015112
    36  H   -0.182861   0.067013  -0.020149   0.179238  -0.411673  -0.009730
    37  O    0.000002   0.000062   0.000011   0.000020  -0.000348   0.000329
    38  H    0.000117   0.000027   0.000009  -0.000004  -0.000090  -0.000095
    39  H    0.000057   0.000012   0.000010  -0.000005  -0.000046   0.000083
              13         14         15         16         17         18
     1  C    0.006900   0.026741  -0.023035  -0.179939   0.252732  -0.004104
     2  C    0.111844   0.006471  -0.152735   0.101176   0.396589  -0.091579
     3  C    0.009300   0.000503   0.004700   0.014535  -0.030739   0.022506
     4  C    0.006589  -0.007290   0.002149  -0.021061   0.000229  -0.002291
     5  C   -0.004934   0.004143  -0.003621   0.000743   0.008018   0.002030
     6  N   -0.002008  -0.000279   0.000478   0.021994  -0.019487   0.002644
     7  C    0.173775  -0.250624   0.411835  -0.339188  -0.076578   0.396221
     8  C    0.037410   0.218677   0.149929  -0.001512  -0.916465   0.006154
     9  C   -0.010786  -0.182043  -0.346820   0.227423   0.149740   0.160989
    10  C   -0.333539   0.201270   0.048217   0.035396  -0.146430  -0.124477
    11  N   -0.044314   0.040631  -0.089639  -0.089510   0.245902  -1.041389
    12  O   -0.010342  -0.005181   0.023752   0.004278  -0.001547   0.062822
    13  H    2.475612  -0.313527   0.184327  -0.062605   0.059100  -0.623131
    14  H   -0.313527   1.936655  -0.525590   0.174334  -0.266392   0.135053
    15  H    0.184327  -0.525590   2.065985  -0.334885   0.119127  -0.286369
    16  H   -0.062605   0.174334  -0.334885   2.174563  -0.600097   0.061119
    17  H    0.059100  -0.266392   0.119127  -0.600097   2.487125  -0.040864
    18  H   -0.623131   0.135053  -0.286369   0.061119  -0.040864   2.818131
    19  H   -0.139765   0.058382  -0.034907   0.222063  -0.261162   0.106122
    20  H    0.005202  -0.007147   0.012937  -0.136558   0.059499  -0.020757
    21  H   -0.000064   0.000097  -0.000098  -0.001336   0.001632   0.000044
    22  H   -0.000140  -0.000105   0.000068   0.000780  -0.002637   0.000008
    23  H    0.000421   0.002426  -0.001900  -0.004640   0.015756  -0.001614
    24  C   -0.024440  -0.009369  -0.010355  -0.051705   0.060392  -0.086977
    25  H   -0.015882  -0.010104   0.022527   0.051524   0.006125  -0.006417
    26  H   -0.000346   0.000194  -0.003007   0.011827  -0.004494   0.009041
    27  H   -0.000221  -0.000129   0.003310   0.000392   0.001700  -0.004410
    28  H    0.000022   0.000055  -0.000014   0.000146  -0.000409   0.000269
    29  O    0.000062  -0.000032  -0.000252   0.002112   0.000011   0.000159
    30  H    0.000015  -0.000004  -0.000021   0.000651   0.000048  -0.000029
    31  O   -0.000239  -0.000318   0.000753  -0.003060   0.000430  -0.000137
    32  H   -0.000407   0.000177  -0.000523   0.001226  -0.000507   0.000910
    33  H    0.000163  -0.000064   0.000079  -0.001326   0.000275  -0.000918
    34  H   -0.007077  -0.004363   0.011062  -0.011809   0.002581  -0.015085
    35  H    0.013286  -0.001779  -0.003779   0.004683   0.001908   0.012857
    36  H    0.012420   0.009133  -0.008668   0.006002   0.003610   0.042771
    37  O    0.000000  -0.000000   0.000006   0.000061   0.000006   0.000012
    38  H   -0.000002   0.000001   0.000001   0.000024  -0.000001   0.000012
    39  H    0.000002  -0.000000   0.000001   0.000008   0.000000  -0.000006
              19         20         21         22         23         24
     1  C   -0.201703  -0.941417   0.151412   0.022241   0.142215  -0.033638
     2  C    1.083758  -0.578621  -0.114193  -0.079544   1.190289   0.494510
     3  C    0.038465  -0.245405   0.262503   0.616648  -2.537889  -0.190682
     4  C   -0.062306   0.073710   0.044051  -1.166507   0.686322   0.074520
     5  C    0.051874  -0.088680  -0.442287   0.382637  -0.219333  -0.023218
     6  N   -0.000891  -0.048925  -0.156664  -0.078745  -0.029228  -0.006940
     7  C   -3.276741   0.183645  -0.027862   0.034195  -0.102421  -0.795947
     8  C    0.697869   0.046010   0.001624   0.000394  -0.046101  -0.077642
     9  C   -0.077719   0.028294   0.000401  -0.000014  -0.002815  -0.057408
    10  C    0.066852  -0.024365  -0.000633   0.000157  -0.006371  -0.090127
    11  N   -0.302005  -0.150340   0.005484  -0.002447   0.003828   0.914882
    12  O    0.005595   0.025634  -0.000238   0.000155  -0.001297  -0.004631
    13  H   -0.139765   0.005202  -0.000064  -0.000140   0.000421  -0.024440
    14  H    0.058382  -0.007147   0.000097  -0.000105   0.002426  -0.009369
    15  H   -0.034907   0.012937  -0.000098   0.000068  -0.001900  -0.010355
    16  H    0.222063  -0.136558  -0.001336   0.000780  -0.004640  -0.051705
    17  H   -0.261162   0.059499   0.001632  -0.002637   0.015756   0.060392
    18  H    0.106122  -0.020757   0.000044   0.000008  -0.001614  -0.086977
    19  H    4.197675  -0.033293   0.001015  -0.000675  -0.172249  -0.097246
    20  H   -0.033293   3.917225   0.011487  -0.004313  -0.013456   0.039531
    21  H    0.001015   0.011487   2.026131  -0.124259  -0.004204   0.002664
    22  H   -0.000675  -0.004313  -0.124259   2.145002  -0.143580  -0.008365
    23  H   -0.172249  -0.013456  -0.004204  -0.143580   3.110507   0.049101
    24  C   -0.097246   0.039531   0.002664  -0.008365   0.049101   4.674110
    25  H   -0.023418   0.024937   0.001122  -0.000259  -0.002046  -0.181057
    26  H    0.005499  -0.008427  -0.000681   0.000481  -0.002185  -0.032759
    27  H   -0.001812  -0.009881  -0.000064  -0.000020   0.000349   0.016081
    28  H   -0.000506  -0.022490  -0.052903   0.007112  -0.001624  -0.004461
    29  O    0.000196  -0.011218   0.004922  -0.000184   0.000133   0.000003
    30  H   -0.000130  -0.001040   0.003377  -0.000343   0.000144   0.000528
    31  O    0.000767   0.038912  -0.000452   0.000102  -0.000966   0.004391
    32  H    0.000492  -0.017855   0.000334  -0.000393  -0.000303   0.001293
    33  H   -0.000728   0.004911   0.000143   0.000009   0.000497   0.001130
    34  H   -0.000481   0.009527   0.000501  -0.001082   0.002431   0.193768
    35  H    0.038437   0.002070  -0.003957  -0.000772   0.008669   0.061562
    36  H    0.057635  -0.003329   0.000230   0.000572  -0.000087   0.210598
    37  O   -0.000004  -0.001181   0.000010  -0.000001   0.000011   0.000384
    38  H    0.000010  -0.000217  -0.000007   0.000003  -0.000009  -0.000013
    39  H    0.000001   0.000462  -0.000007  -0.000000   0.000002  -0.000033
              25         26         27         28         29         30
     1  C   -0.205313  -0.011035   0.016932  -0.129301  -0.010174   0.003207
     2  C   -0.113173   0.013801  -0.005869   0.009933  -0.052286   0.008664
     3  C   -0.020011   0.004642  -0.002333   0.013610   0.011538  -0.002646
     4  C   -0.005610   0.001646   0.000425  -0.054933  -0.008255   0.006821
     5  C    0.007692  -0.007729   0.000333   0.070835   0.027974  -0.011363
     6  N    0.001094  -0.005866   0.000469   0.133002  -0.035905  -0.005202
     7  C    0.105008   0.016022  -0.008977   0.021026   0.010762  -0.003656
     8  C   -0.089977   0.011415  -0.002761  -0.005656  -0.001374   0.001422
     9  C   -0.005006   0.023301  -0.007860   0.000008  -0.000882   0.000086
    10  C   -0.319581  -0.000386   0.000138  -0.000679   0.000628   0.000086
    11  N    0.370696   0.007802   0.022246  -0.006722  -0.001380   0.000990
    12  O   -0.077909   0.289141   0.362875  -0.000207   0.000076   0.000719
    13  H   -0.015882  -0.000346  -0.000221   0.000022   0.000062   0.000015
    14  H   -0.010104   0.000194  -0.000129   0.000055  -0.000032  -0.000004
    15  H    0.022527  -0.003007   0.003310  -0.000014  -0.000252  -0.000021
    16  H    0.051524   0.011827   0.000392   0.000146   0.002112   0.000651
    17  H    0.006125  -0.004494   0.001700  -0.000409   0.000011   0.000048
    18  H   -0.006417   0.009041  -0.004410   0.000269   0.000159  -0.000029
    19  H   -0.023418   0.005499  -0.001812  -0.000506   0.000196  -0.000130
    20  H    0.024937  -0.008427  -0.009881  -0.022490  -0.011218  -0.001040
    21  H    0.001122  -0.000681  -0.000064  -0.052903   0.004922   0.003377
    22  H   -0.000259   0.000481  -0.000020   0.007112  -0.000184  -0.000343
    23  H   -0.002046  -0.002185   0.000349  -0.001624   0.000133   0.000144
    24  C   -0.181057  -0.032759   0.016081  -0.004461   0.000003   0.000528
    25  H    1.334578   0.001770  -0.030620  -0.000607  -0.004392   0.000798
    26  H    0.001770   0.551729  -0.125710   0.001767  -0.008329  -0.002160
    27  H   -0.030620  -0.125710   0.581532   0.000105   0.002055   0.000121
    28  H   -0.000607   0.001767   0.000105   0.630498   0.279271  -0.120416
    29  O   -0.004392  -0.008329   0.002055   0.279271   7.893638   0.372148
    30  H    0.000798  -0.002160   0.000121  -0.120416   0.372148   0.584024
    31  O    0.002412  -0.018568   0.009325  -0.001146  -0.059984   0.001643
    32  H    0.003901  -0.009564   0.001991  -0.001674  -0.011527   0.000361
    33  H   -0.003058  -0.010850   0.001083  -0.003445   0.001767   0.000779
    34  H    0.079247  -0.001093  -0.001064  -0.001013  -0.000186   0.000063
    35  H   -0.058034   0.013843  -0.003197   0.001985   0.000992  -0.000012
    36  H   -0.092672  -0.009614   0.003925   0.000274   0.000035  -0.000015
    37  O   -0.001225   0.010429  -0.000858   0.000255  -0.000057  -0.000030
    38  H   -0.000189   0.001317  -0.000099   0.000005   0.000079  -0.000047
    39  H    0.000186  -0.002203   0.000054  -0.000244  -0.000342   0.000254
              31         32         33         34         35         36
     1  C   -0.117354  -0.019599   0.026701  -0.043585   0.160499  -0.014035
     2  C    0.069503   0.017259  -0.011860   0.037990  -0.033500   0.114322
     3  C   -0.024181  -0.014484   0.002214  -0.023549  -0.013313   0.014200
     4  C   -0.001061   0.008827  -0.001997   0.010341   0.062749  -0.026706
     5  C    0.010138  -0.006325   0.002530  -0.002817  -0.038375   0.014938
     6  N    0.018419   0.009108  -0.004679   0.001626  -0.011095  -0.000853
     7  C    0.002782   0.003410  -0.005444   0.048797   0.033545  -0.182861
     8  C    0.002892   0.002228  -0.002425  -0.078676   0.072614   0.067013
     9  C   -0.001354  -0.001647  -0.000865   0.076867  -0.035696  -0.020149
    10  C   -0.001446  -0.000253   0.001435  -0.056345  -0.081059   0.179238
    11  N   -0.009986  -0.000713   0.009671  -0.157845  -0.084283  -0.411673
    12  O   -0.072895   0.005251   0.003908   0.022184   0.015112  -0.009730
    13  H   -0.000239  -0.000407   0.000163  -0.007077   0.013286   0.012420
    14  H   -0.000318   0.000177  -0.000064  -0.004363  -0.001779   0.009133
    15  H    0.000753  -0.000523   0.000079   0.011062  -0.003779  -0.008668
    16  H   -0.003060   0.001226  -0.001326  -0.011809   0.004683   0.006002
    17  H    0.000430  -0.000507   0.000275   0.002581   0.001908   0.003610
    18  H   -0.000137   0.000910  -0.000918  -0.015085   0.012857   0.042771
    19  H    0.000767   0.000492  -0.000728  -0.000481   0.038437   0.057635
    20  H    0.038912  -0.017855   0.004911   0.009527   0.002070  -0.003329
    21  H   -0.000452   0.000334   0.000143   0.000501  -0.003957   0.000230
    22  H    0.000102  -0.000393   0.000009  -0.001082  -0.000772   0.000572
    23  H   -0.000966  -0.000303   0.000497   0.002431   0.008669  -0.000087
    24  C    0.004391   0.001293   0.001130   0.193768   0.061562   0.210598
    25  H    0.002412   0.003901  -0.003058   0.079247  -0.058034  -0.092672
    26  H   -0.018568  -0.009564  -0.010850  -0.001093   0.013843  -0.009614
    27  H    0.009325   0.001991   0.001083  -0.001064  -0.003197   0.003925
    28  H   -0.001146  -0.001674  -0.003445  -0.001013   0.001985   0.000274
    29  O   -0.059984  -0.011527   0.001767  -0.000186   0.000992   0.000035
    30  H    0.001643   0.000361   0.000779   0.000063  -0.000012  -0.000015
    31  O    7.962756   0.342655   0.326692   0.008861  -0.010650  -0.000395
    32  H    0.342655   0.602150  -0.169832   0.000507  -0.001789   0.000540
    33  H    0.326692  -0.169832   0.650674  -0.000538  -0.001209   0.000420
    34  H    0.008861   0.000507  -0.000538   1.956376  -0.586087  -0.343625
    35  H   -0.010650  -0.001789  -0.001209  -0.586087   1.916453  -0.411453
    36  H   -0.000395   0.000540   0.000420  -0.343625  -0.411453   1.938463
    37  O   -0.055189  -0.000366  -0.017795   0.000203   0.001082  -0.000018
    38  H    0.002119  -0.001654  -0.003435  -0.000030  -0.000031   0.000004
    39  H    0.006105  -0.002206   0.005331   0.000026   0.000000  -0.000013
              37         38         39
     1  C   -0.000460  -0.000322   0.000035
     2  C    0.001031   0.000306  -0.000064
     3  C    0.000369  -0.000105   0.000139
     4  C   -0.000059   0.000059  -0.000032
     5  C    0.000080  -0.000154   0.000009
     6  N   -0.000231   0.000022  -0.000041
     7  C    0.000002   0.000117   0.000057
     8  C    0.000062   0.000027   0.000012
     9  C    0.000011   0.000009   0.000010
    10  C    0.000020  -0.000004  -0.000005
    11  N   -0.000348  -0.000090  -0.000046
    12  O    0.000329  -0.000095   0.000083
    13  H    0.000000  -0.000002   0.000002
    14  H   -0.000000   0.000001  -0.000000
    15  H    0.000006   0.000001   0.000001
    16  H    0.000061   0.000024   0.000008
    17  H    0.000006  -0.000001   0.000000
    18  H    0.000012   0.000012  -0.000006
    19  H   -0.000004   0.000010   0.000001
    20  H   -0.001181  -0.000217   0.000462
    21  H    0.000010  -0.000007  -0.000007
    22  H   -0.000001   0.000003  -0.000000
    23  H    0.000011  -0.000009   0.000002
    24  C    0.000384  -0.000013  -0.000033
    25  H   -0.001225  -0.000189   0.000186
    26  H    0.010429   0.001317  -0.002203
    27  H   -0.000858  -0.000099   0.000054
    28  H    0.000255   0.000005  -0.000244
    29  O   -0.000057   0.000079  -0.000342
    30  H   -0.000030  -0.000047   0.000254
    31  O   -0.055189   0.002119   0.006105
    32  H   -0.000366  -0.001654  -0.002206
    33  H   -0.017795  -0.003435   0.005331
    34  H    0.000203  -0.000030   0.000026
    35  H    0.001082  -0.000031   0.000000
    36  H   -0.000018   0.000004  -0.000013
    37  O    7.709325   0.344980   0.341538
    38  H    0.344980   0.564728  -0.067491
    39  H    0.341538  -0.067491   0.568578
 Mulliken charges:
               1
     1  C    0.724454
     2  C    1.050564
     3  C    1.209543
     4  C    0.532767
     5  C    0.247677
     6  N   -0.486605
     7  C    1.217746
     8  C    0.936232
     9  C    0.755506
    10  C    1.233301
    11  N   -0.933371
    12  O   -0.485363
    13  H   -0.502681
    14  H   -0.230603
    15  H   -0.235022
    16  H   -0.277829
    17  H   -0.504728
    18  H   -0.489320
    19  H   -0.944965
    20  H   -1.115080
    21  H   -0.589274
    22  H   -0.596178
    23  H   -0.918785
    24  C    0.987564
    25  H    0.252943
    26  H    0.289343
    27  H    0.180445
    28  H    0.238271
    29  O   -0.401802
    30  H    0.160167
    31  O   -0.432273
    32  H    0.259002
    33  H    0.200057
    34  H   -0.126605
    35  H   -0.042278
    36  H   -0.140449
    37  O   -0.332386
    38  H    0.160173
    39  H    0.149842
 Sum of Mulliken charges =   1.00000
 Mulliken charges with hydrogens summed into heavy atoms:
               1
     1  C   -0.390626
     2  C    1.050564
     3  C    0.290758
     4  C   -0.063410
     5  C   -0.341598
     6  N   -0.486605
     7  C    0.272782
     8  C    0.153676
     9  C    0.289881
    10  C    0.241300
    11  N   -0.680428
    12  O   -0.015574
    24  C    0.678232
    29  O   -0.003365
    31  O    0.026786
    37  O   -0.022371
 Electronic spatial extent (au):  <R**2>=           5152.4789
 Charge=              1.0000 electrons
 Dipole moment (field-independent basis, Debye):
    X=              2.4694    Y=             -2.6965    Z=              1.5235  Tot=              3.9611
 Quadrupole moment (field-independent basis, Debye-Ang):
[...]
 00000212,-0.00023966,-0.00015942,0.00002120,-0.00078888,0.00025961,0.0
 0016436,-0.00002552,0.00009608,-0.00007144,0.00000068,0.00032981,-0.00
 031989,0.00009417,0.00021419,-0.00019697,-0.00486864,-0.00111683,-0.00
 032176,-0.00052467,-0.00007687,-0.00046734,0.00027340,-0.00005222,-0.0
 0010944,0.00000483,0.00002378,0.00005292,0.00000222,-0.00007682,-0.000
 07925,0.00001101,0.00000135,0.00000084,-0.00001180,-0.00000162,0.00002
 392,-0.00032052,0.00021774,-0.00030177,-0.00005653,-0.00004795,0.00000
 150,0.00000602,0.00001278,0.00011294,-0.00000182,-0.00000130,-0.000007
 78,-0.00001056,-0.00000430,-0.00000581,-0.00003623,-0.00004351,-0.0000
 1548,0.02478990,-0.05082950,0.00157015,0.00076195,0.00033422,0.0002900
 9,0.00050975,-0.00011249,0.00077466,0.00007708,-0.00003502,-0.00003344
 ,0.00016253,0.00036965,-0.00002087,0.00019664,-0.00039404,-0.00020846,
 -0.00000271,-0.00001847,-0.00000607,0.00068995,0.00007596,-0.00114120,
 -0.00049962,0.00056700,0.00038412,-0.00028759,-0.00049289,-0.00000084,
 0.02870072,-0.00040620,0.00159151,-0.02690436,0.04866404,-0.00000887,-
 0.00010391,-0.00031749,-0.00005480,-0.00045476,-0.00063546,0.00035734,
 -0.00035283,0.00001511,-0.00033295,-0.00004485,0.00005844,0.00008962,0
 .00022152,-0.00019361,0.00025178,-0.00012620,0.00014020,-0.00056556,0.
 00087820,0.00135713,-0.00015118,0.00035486,0.00006974,-0.00182454,0.00
 013464,-0.00006286,0.00184259,-0.00187652,-0.00560212,-0.04092291,0.00
 382177,-0.00702694,0.00038812,0.00011801,0.00009386,-0.00013814,-0.000
 25449,0.00005881,-0.00007029,-0.00012005,-0.00049569,-0.00007328,-0.00
 010181,-0.00016758,0.00003881,-0.00001742,-0.00003710,0.00005597,-0.00
 003169,0.00001823,-0.00007371,0.00012762,-0.00005890,0.00006577,-0.000
 19027,-0.00017566,-0.00002770,0.00001520,-0.00005016,-0.00001270,0.000
 01196,-0.00000426,-0.00000397,0.00001742,0.00000539,0.00003884,0.00006
 553,0.00001416,0.00414363,0.00019993,-0.05003081,-0.00097069,-0.000304
 94,0.00130948,-0.00021227,0.00024507,-0.00031183,-0.00002004,0.0000131
 9,-0.00000866,0.00008868,0.00006488,-0.00000891,-0.00013906,-0.0000442
 5,0.00004101,0.00000941,0.00001746,-0.00000640,-0.00020820,-0.00051920
 ,-0.00029288,0.00013913,-0.00003061,-0.00006455,-0.00005308,-0.0000068
 6,0.00042213,0.00934182,0.00064296,0.00084259,0.01194299,0.00115213,0.
 05918861,-0.00024984,-0.00008049,0.00008505,-0.00010598,0.00005362,-0.
 00005434,0.00008814,-0.00019271,0.00000855,-0.00019168,0.00002203,-0.0
 0005053,0.00003104,0.00010676,-0.00006931,0.00029190,-0.00001780,0.000
 02664,0.00016469,0.00022471,0.00034658,0.00010994,0.00015520,0.0000525
 6,-0.00005921,-0.00012915,0.00009844,0.00203558,0.00117501,-0.00113875
 ,0.00386471,0.00929493,-0.00942292,0.00031660,0.00027860,0.00006753,-0
 .00019715,-0.00029541,0.00015311,0.00000218,-0.00002517,0.00000551,-0.
 00000821,0.00002652,0.00006775,-0.00008790,0.00002145,-0.00001843,-0.0
 0001960,-0.00000916,0.00003877,-0.00012927,-0.00004913,-0.00000881,0.0
 0006185,0.00005336,0.00033523,0.00001386,-0.00000318,-0.00006514,0.000
 00548,0.00000855,-0.00000180,-0.00000341,0.00001040,0.00000902,0.00006
 539,0.00014237,0.00004920,-0.10572730,-0.08906518,0.07135192,-0.000625
 65,-0.00055857,-0.00206618,-0.00025730,0.00013580,-0.00035844,0.000025
 26,0.00003842,0.00000638,-0.00003894,-0.00011920,-0.00000311,-0.000094
 75,0.00012140,0.00008445,0.00000635,0.00000979,-0.00000173,-0.00042034
 ,-0.00033804,0.00041405,0.00019895,-0.00018836,-0.00017851,0.00005626,
 0.00015452,0.00012957,0.00387347,0.00703832,-0.00604621,-0.00809227,-0
 .02205466,0.01709574,0.10510885,0.00009691,0.00004050,-0.00001885,-0.0
 0013973,-0.00007675,0.00014279,0.00001291,0.00006245,0.00008649,0.0000
 2306,-0.00002343,-0.00000106,0.00000292,-0.00004208,0.00001628,-0.0000
 9645,0.00004265,0.00000961,0.00072749,0.00152230,-0.00114288,0.0000087
 7,0.00008168,-0.00016535,0.00017606,0.00015895,-0.00007558,0.00007870,
 -0.00026014,0.00003566,0.00265934,0.00389039,-0.00534596,0.00005021,0.
 00019498,0.00025486,0.00052972,0.00005868,0.00040784,0.00001631,0.0000
 2493,0.00004296,0.00003625,-0.00004490,-0.00008452,-0.00005233,-0.0000
 5785,-0.00003780,0.00000463,-0.00002784,0.00005110,-0.00011707,-0.0000
 0687,-0.00000966,-0.00029983,0.00021792,0.00020637,-0.00000720,-0.0000
 1407,-0.00000132,-0.00000828,-0.00000263,0.00000100,0.00000132,0.00000
 487,0.00000190,-0.00001924,-0.00002795,-0.00001705,-0.08681145,-0.1870
 0757,0.11096062,-0.00025284,0.00020708,-0.00149949,0.00012329,0.000017
 78,-0.00019252,0.00000204,0.00002047,-0.00009056,0.00001034,-0.0000049
 8,-0.00000149,-0.00006608,0.00002022,0.00003355,0.00000798,0.00000826,
 -0.00000613,-0.00020249,0.00011677,0.00012692,0.00009001,-0.00008523,-
 0.00007604,0.00010815,0.00005255,0.00002581,-0.01359615,-0.01562416,0.
 01633373,0.00280934,0.00292872,-0.00345370,0.09411937,0.19366300,-0.00
 005030,0.00020464,-0.00003945,-0.00003890,-0.00033783,-0.00000572,0.00
 009417,0.00007711,-0.00003770,0.00002567,-0.00003700,0.00003776,0.0000
 2330,-0.00003393,-0.00000498,-0.00005613,-0.00006669,0.00004130,0.0007
 4580,0.00284366,0.00106959,-0.00027048,-0.00028163,0.00028502,-0.00009
 470,-0.00022603,0.00039575,0.00263393,0.00016047,0.00068848,0.01428052
 ,0.02532771,-0.02964766,0.00061308,0.00114703,-0.00019064,-0.00099101,
 -0.00014335,0.00031702,-0.00001285,-0.00003151,-0.00006924,0.00004142,
 0.00003113,0.00013263,0.00004672,-0.00003615,0.00023700,-0.00006812,-0
 .00003660,-0.00001831,-0.00020508,-0.00006645,0.00006132,-0.00035807,-
 0.00113767,-0.00012229,-0.00006545,-0.00000791,0.00003396,-0.00000516,
 -0.00000444,0.00000644,-0.00000125,0.00000074,-0.00000025,0.00000560,-
 0.00008638,0.00000375,0.06430797,0.10197462,-0.13067791,-0.00380877,-0
 .00403393,-0.00351681,-0.00026705,0.00009984,-0.00043932,0.00019496,0.
 00012634,-0.00000280,0.00001210,0.00002946,-0.00000933,-0.00002808,-0.
 00001565,0.00003125,-0.00000250,0.00000786,-0.00000202,-0.00003581,-0.
 00005980,0.00030783,0.00002325,-0.00004415,-0.00003470,0.00009539,0.00
 004056,-0.00001654,-0.00519362,-0.00682864,0.00729185,-0.00067245,-0.0
 0203572,0.00205858,-0.07088659,-0.11649494,0.15184234,-0.00006748,0.00
 006741,-0.00003677,-0.00000926,-0.00004787,-0.00001401,-0.00002078,0.0
 0004184,-0.00002084,0.00007093,0.00001584,-0.00002309,-0.00003316,-0.0
 0005842,0.00003945,0.00014454,0.00009604,0.00000199,-0.00009844,0.0001
 7489,0.00005644,0.00000667,-0.00004520,-0.00002945,0.00001411,0.000005
 29,0.00002423,0.00002141,0.00002934,-0.00000270,0.00000835,-0.00014943
 ,-0.00003818,0.00010529,-0.00024205,-0.00022721,0.00000551,0.00000286,
 0.00000146,-0.00000050,-0.00001000,-0.00000681,0.00000890,0.00000050,0
 .00000106,-0.00000147,0.00001185,0.00000089,-0.00000652,-0.00000959,-0
 .00001164,0.00002375,-0.00001347,0.00001607,0.00001255,-0.00000512,-0.
 00000462,-0.00002932,0.00000692,0.00003502,0.00000394,-0.00002100,-0.0
 0000459,0.00000123,-0.00000390,-0.00000201,0.00000113,0.00001199,-0.00
 000105,-0.00005598,0.00011701,0.00012486,0.00003138,0.00014606,-0.0000
 0123,-0.00012764,0.00017383,0.00018034,-0.00001758,0.00005481,0.000180
 15,-0.00023213,-0.00024331,0.00004584,0.00071303,0.00031061,-0.0000378
 3,-0.00006089,-0.00014311,-0.00011549,0.00314557,-0.00359330,-0.003194
 99,-0.00147089,-0.00072994,-0.00041039,-0.00410736,0.00248355,-0.00005
 983,0.00013244,0.00004204,0.00001639,-0.00003605,0.00007106,0.00000833
 ,-0.00000575,-0.00002496,-0.00003133,0.28070221,0.00006476,0.00009883,
 -0.00007159,0.00003710,-0.00009326,0.00002911,-0.00001615,0.00004951,-
 0.00001305,0.00001447,-0.00000722,0.00000725,-0.00011071,0.00009345,0.
 00000281,-0.00009236,-0.00023240,-0.00007968,0.00005863,0.00009016,0.0
 0002695,0.00000346,0.00000725,0.00000574,-0.00001916,0.00000435,-0.000
 00779,0.00020348,-0.00006640,-0.00000422,-0.00021628,-0.00007717,0.000
 01955,-0.00169659,0.00013381,-0.00098339,-0.00000641,-0.00000797,-0.00
 000138,-0.00001487,-0.00001554,-0.00000522,0.00000713,0.00001058,-0.00
 000522,0.00000097,0.00001027,0.00002609,-0.00000897,-0.00000735,0.0000
 0155,0.00001445,-0.00000256,-0.00001642,-0.00000546,-0.00001617,0.0000
 0416,0.00005575,0.00003090,0.00009538,0.00000642,0.00001037,0.00001361
 ,-0.00000337,0.00000115,0.00001166,-0.00000568,0.00000023,0.00001354,0
 .00015837,-0.00008742,0.00005399,0.00022682,0.00019780,-0.00004709,0.0
 0258033,-0.00051952,0.00161784,-0.00005825,-0.00025498,-0.00007410,0.0
 0002607,0.00030191,0.00007092,0.00078796,-0.00026521,-0.00066331,-0.00
 003055,-0.00023102,0.00000302,-0.00350735,-0.00404652,-0.01066509,-0.0
 0189264,0.00024310,0.00081412,0.00345858,-0.00604798,0.00330804,0.0001
 1570,-0.00002509,-0.00002171,0.00007218,0.00023318,0.00001402,-0.00006
 404,-0.00002689,-0.00003159,0.02180201,0.58877570,0.00008977,0.0002224
 8,-0.00016043,0.00003592,-0.00012118,0.00008760,-0.00004551,0.00005891
 ,0.00000846,0.00003761,-0.00003420,0.00005637,-0.00014551,0.00012044,-
 0.00002184,-0.00013847,-0.00037886,-0.00001175,0.00008932,0.00002058,0
 .00002056,0.00001294,0.00004230,-0.00000438,-0.00000246,0.00001010,-0.
 00001551,0.00012099,0.00001458,0.00002986,-0.00015967,-0.00016510,0.00
 023274,-0.00167278,-0.00048216,-0.00080562,-0.00002635,-0.00003798,-0.
 00000018,-0.00001300,-0.00001684,0.00000746,0.00002495,0.00001231,0.00
 001778,-0.00000576,0.00001964,0.00004153,-0.00000709,-0.00001325,0.000
 01660,0.00003637,0.00001119,-0.00004395,-0.00001977,-0.00003816,0.0000
 0506,0.00006102,0.00005194,0.00009017,0.00002143,0.00000029,-0.0000127
 8,-0.00000780,-0.00002291,-0.00000325,-0.00001832,-0.00002280,-0.00000
 084,0.00000210,-0.00012892,-0.00010552,0.00044799,0.00067456,-0.000331
 72,0.00239708,-0.00002288,0.00163555,0.00009962,-0.00007078,0.00007514
 ,0.00015660,0.00061010,-0.00003134,0.00076025,-0.00085895,-0.00055084,
 -0.00006593,0.00000439,0.00007405,-0.00264485,-0.00938455,-0.00577205,
 -0.00201711,0.00064597,0.00091415,0.00124914,0.00345388,-0.00669230,-0
 .00002688,0.00001896,-0.00013066,0.00007030,0.00009797,-0.00018846,-0.
 00007686,-0.00005004,-0.00001660,0.26223129,-0.17809162,0.33597554,0.0
 0002906,-0.00001252,0.00000517,0.00000158,0.00002005,0.00000909,0.0000
 1103,-0.00001826,0.00001435,-0.00003459,-0.00001015,0.00001391,0.00002
 630,0.00002713,-0.00002067,-0.00006377,-0.00004806,0.00000227,0.000048
 81,-0.00008121,-0.00002634,-0.00000283,0.00002345,0.00001211,-0.000001
 02,-0.00000298,-0.00000975,-0.00002168,0.00000976,0.00000779,0.0000103
 7,0.00004832,0.00005179,-0.00001187,0.00000236,0.00005624,-0.00000447,
 -0.00000721,-0.00000038,0.00000019,0.00000346,0.00000443,-0.00000138,0
 .00000098,0.00000354,-0.00000001,-0.00000379,0.00000229,0.00000326,0.0
 0000243,0.00000710,-0.00000382,0.00000661,-0.00000786,-0.00000725,-0.0
 0000190,0.00000135,0.00000923,0.00000183,-0.00001262,-0.00000174,0.000
 01066,0.00000407,0.00000108,0.00000115,-0.00000018,-0.00000251,-0.0000
 0817,-0.00000116,-0.00001833,-0.00003564,-0.00005977,0.00002016,0.0000
 2001,-0.00003295,-0.00000867,0.00000644,-0.00001943,0.00000628,-0.0000
 0498,-0.00001517,0.00009034,0.00010974,-0.00000739,-0.00023947,-0.0000
 8123,-0.00005186,0.00004868,0.00001716,0.00004249,0.00016918,0.0007348
 2,0.00059395,0.00027341,-0.00013772,-0.00002859,-0.00063283,-0.0006483
 2,-0.00050759,-0.00005582,0.00001542,-0.00003576,0.00001209,-0.0000554
 2,-0.00004250,0.00000324,-0.00000539,0.00000408,-0.23950943,0.08764339
 ,-0.26211554,0.23671268,-0.00002117,0.00004773,-0.00003658,-0.00000652
 ,-0.00001033,0.00001285,-0.00002090,0.00000742,0.00000732,0.00002855,-
 0.00000903,0.00001533,-0.00000498,-0.00002064,0.00000309,0.00002999,0.
 00000758,0.00003600,-0.00002182,0.00000317,0.00000377,0.00000443,-0.00
 000327,-0.00001068,0.00000926,0.00000153,0.00000395,-0.00004675,0.0000
 2523,0.00001320,0.00006031,-0.00004421,0.00005272,-0.00001335,-0.00012
 898,-0.00000096,-0.00000373,-0.00000301,-0.00000015,0.00000316,0.00000
 085,0.00000312,0.00000531,-0.00000243,0.00000599,-0.00000188,0.0000030
 1,0.00000060,-0.00000046,-0.00000074,0.00000160,0.00000648,-0.00000005
 ,-0.00000201,-0.00000179,-0.00000498,-0.00000240,-0.00000382,0.0000056
 9,0.00000379,0.00000717,-0.00001341,-0.00001663,-0.00000130,-0.0000122
 7,-0.00000949,-0.00000296,-0.00000635,-0.00000759,-0.00008755,0.000020
 70,-0.00002253,0.00004980,0.00012708,-0.00006457,0.00000143,0.00005972
 ,0.00005577,0.00000156,0.00002833,0.00002859,-0.00002579,0.00002183,-0
 .00004391,0.00015262,-0.00011873,0.00006983,0.00001054,0.00004199,-0.0
 0000396,0.00048754,-0.00267264,-0.00103767,-0.00041274,-0.00000632,-0.
 00026164,-0.00129621,0.00456619,0.00104558,-0.00000499,0.00002059,-0.0
 0001448,-0.00002443,-0.00002529,-0.00008303,-0.00001104,-0.00001329,0.
 00000246,0.04797365,-0.07253861,0.06815352,-0.07909951,0.08209966,-0.0
 0005501,-0.00001972,0.00002123,0.00000603,0.00002338,-0.00002313,0.000
 00395,-0.00000935,-0.00000305,0.00000711,0.00000671,-0.00001742,0.0000
 2881,-0.00005174,0.00001888,0.00007628,0.00013647,0.00000594,-0.000030
 50,0.00000494,0.00000401,-0.00000126,-0.00001206,-0.00000146,0.0000011
 3,-0.00000184,0.00000483,-0.00002748,-0.00000985,-0.00000224,0.0000460
 5,0.00003691,-0.00005699,0.00031372,0.00011175,0.00013403,0.00000469,0
 .00000947,-0.00000033,0.00000371,0.00000354,-0.00000131,-0.00000435,-0
 .00000290,-0.00000406,0.00000099,-0.00000297,-0.00000926,0.00000044,0.
 00000252,-0.00000348,-0.00000693,-0.00000309,0.00000872,0.00000689,0.0
 0000815,-0.00000209,-0.00001642,-0.00001774,-0.00000920,-0.00000491,-0
 .00000866,0.00000216,0.00000179,0.00000683,0.00000155,0.00000774,0.000
 00599,0.00000161,-0.00000678,0.00001793,0.00003037,-0.00008366,-0.0001
 3336,0.00006585,-0.00040960,-0.00002332,-0.00028089,-0.00002274,0.0000
 1356,-0.00000972,-0.00012169,-0.00023557,0.00002399,0.00009648,0.00030
 758,0.00014557,0.00000292,-0.00003895,-0.00005124,0.00091918,-0.000536
 34,0.00037321,-0.00024307,-0.00029458,-0.00045423,-0.00194549,0.001233
 64,-0.00127978,-0.00000591,-0.00001662,0.00003254,-0.00002462,-0.00003
 230,0.00003245,0.00002501,0.00002475,0.00001100,-0.24565193,0.10593699
 ,-0.27819606,0.25589327,-0.10318380,0.28603949,0.00002924,-0.00001607,
 0.00000563,0.00000620,0.00000678,0.00000615,0.00000345,-0.00000945,0.0
 0000490,-0.00002267,-0.00000822,0.00001199,-0.00000171,0.00002858,-0.0
 0001425,-0.00006486,-0.00005686,-0.00000487,0.00003582,-0.00004689,-0.
 00002066,-0.00000038,0.00001299,0.00001016,-0.00001068,-0.00000224,-0.
 00000930,0.00002971,-0.00003374,-0.00000208,-0.00002695,0.00005027,-0.
 00000037,-0.00022478,0.00018518,-0.00000212,-0.00000142,0.00000102,-0.
 00000024,-0.00000153,0.00000246,0.00000026,-0.00000424,-0.00000051,-0.
 00000479,0.00000063,-0.00000475,0.00000103,0.00000071,0.00000433,0.000
 00241,-0.00000931,0.00000181,-0.00000532,-0.00000414,0.00000219,0.0000
 0302,0.00002211,-0.00000336,-0.00000248,0.00000050,0.00000699,-0.00000
 038,-0.00000133,0.00000045,0.00000101,-0.00000060,-0.00000406,0.000002
 26,0.00004040,-0.00003852,-0.00001185,-0.00000196,-0.00008019,0.000029
 83,0.00034530,-0.00015465,0.00012423,0.00000884,-0.00008445,-0.0001168
 3,0.00008617,0.00013616,-0.00000897,-0.00013280,-0.00019794,-0.0000508
 1,0.00004089,0.00005868,0.00005476,-0.00012301,-0.00013011,-0.00048147
 ,0.00004285,0.00011893,-0.00013550,-0.00018857,0.00024628,0.00132985,0
 .00001163,-0.00001681,0.00000547,0.00000915,0.00003312,0.00000786,-0.0
 0000917,0.00000438,-0.00000428,-0.03926231,-0.10958925,0.00126498,0.00
 314453,0.03228187,-0.00878384,0.03623429,-0.00002793,-0.00000857,0.000
 00523,0.00000092,0.00001922,0.00000038,0.00000044,-0.00000552,0.000001
 70,0.00000394,0.00000267,-0.00000408,0.00002060,-0.00002757,0.00000344
 ,0.00004095,0.00007637,0.00002060,-0.00001308,-0.00002037,-0.00000645,
 -0.00000025,-0.00000090,-0.00000070,0.00000256,0.00000068,0.00000036,-
 0.00004767,0.00001147,-0.00000098,0.00004706,0.00002245,0.00000041,0.0
 0023013,0.00003193,0.00015976,0.00000057,0.00000146,-0.00000004,0.0000
 0378,0.00000407,0.00000126,-0.00000181,-0.00000303,0.00000210,-0.00000
 063,-0.00000206,-0.00000631,0.00000164,0.00000223,-0.00000005,-0.00000
 569,0.00000151,0.00000053,0.00000120,0.00000334,-0.00000127,-0.0000116
 3,-0.00000979,-0.00001539,-0.00000165,-0.00000562,-0.00000372,0.000000
 66,-0.00000092,-0.00000381,0.00000209,-0.00000096,-0.00000422,-0.00001
 096,0.00000052,-0.00002125,-0.00004345,-0.00004562,0.00000886,-0.00032
 583,-0.00004676,-0.00027959,-0.00002743,0.00004026,-0.00002723,-0.0000
 5850,-0.00011710,0.00000163,-0.00000907,0.00017716,0.00012106,0.000008
 82,-0.00000679,-0.00004052,0.00049179,0.00085992,0.00020812,-0.0000196
 5,-0.00028299,-0.00025915,-0.00078015,-0.00207200,0.00040377,-0.000030
 12,-0.00000212,0.00000095,-0.00000595,-0.00003032,0.00000105,0.0000101
 6,0.00001149,0.00000434,-0.06829873,-0.50572328,0.11569705,-0.00844271
 ,-0.01145374,-0.00325634,0.07729559,0.51859928,-0.00002111,-0.00002102
 ,0.00001019,0.00000224,0.00001011,-0.00001577,0.00000412,-0.00000285,-
 0.00000301,0.00000113,0.00000567,-0.00001028,0.00001398,-0.00001767,0.
 00000991,0.00003276,0.00006362,-0.00001713,-0.00000934,0.00001209,0.00
 000015,-0.00000514,-0.00001130,0.00000293,-0.00000075,-0.00000309,0.00
 000493,-0.00000218,-0.00001373,-0.00000328,0.00002172,0.00003771,-0.00
 005597,-0.00008133,0.00024300,-0.00017273,0.00000443,0.00001034,-0.000
 00114,0.00000122,0.00000256,-0.00000285,-0.00000582,-0.00000143,-0.000
 00537,0.00000337,-0.00000331,-0.00000580,0.00000010,0.00000187,-0.0000
 0351,-0.00000766,-0.00000508,0.00001230,0.00000300,0.00000673,-0.00000
 149,-0.00000069,-0.00001450,0.00001056,-0.00000350,-0.00000173,0.00000
 504,0.00000123,0.00000408,0.00000144,0.00000376,0.00000414,0.00000172,
 0.00001951,0.00001523,0.00004247,-0.00005799,-0.00013877,0.00009181,0.
 00021117,-0.00025581,0.00017899,-0.00011280,-0.00009575,-0.00004642,-0
 .00008229,-0.00012674,0.00003023,0.00015001,0.00025789,-0.00009645,0.0
 0003664,-0.00014408,-0.00004145,-0.00052691,-0.00055846,-0.00309171,-0
 .00027386,-0.00032384,0.00007228,0.00064404,-0.00023159,0.00497721,0.0
 0002059,0.00000011,0.00002081,-0.00000324,0.00001533,0.00001441,-0.000
 00339,0.00000265,-0.00000059,-0.01303782,0.07870612,-0.04619255,0.0062
 6623,0.03528298,-0.00655145,0.00679460,-0.11271150,0.05083158\\0.00000
 102,-0.00000607,0.00000003,0.00000091,-0.00000357,0.00000120,-0.000002
 47,0.00000248,-0.00000151,0.00000298,0.00000081,-0.00000343,0.00000468
 ,-0.00000423,0.00000180,-0.00001415,0.00001380,0.00000255,-0.00000112,
 0.,0.00000214,0.00000116,0.00000136,-0.00000194,-0.00000191,-0.0000012
 3,0.00000010,0.00000291,0.00000116,0.00000350,-0.00000026,0.00000655,-
 0.00001021,0.00000685,0.00001726,-0.00000372,0.00000014,-0.00000119,0.
 00000072,-0.00000045,0.00000062,0.00000078,0.00000006,0.00000069,0.000
 00108,-0.00000085,0.00000021,0.00000032,0.,-0.00000003,0.00000074,-0.0
 0000030,-0.00000066,0.00000070,0.00000032,0.00000068,0.00000016,0.,0.0
 0000226,0.00000087,-0.00000013,0.00000057,-0.00000183,0.00000015,0.000
 00021,-0.00000107,0.00000102,-0.00000059,-0.00000089,0.00000288,0.0000
 1274,-0.00000120,-0.00000642,-0.00001323,0.00000733,0.00001295,-0.0000
 1001,0.00000371,-0.00000516,-0.00000653,0.00000039,0.00001337,-0.00000
 172,-0.00001939,-0.00000104,-0.00001292,0.00001283,-0.00000417,0.00000
 727,-0.00000062,-0.00001455,0.00000390,-0.00000193,-0.00000585,0.00000
 778,-0.00000645,0.00000999,0.00000864,0.00001070,-0.00000394,-0.000004
 20,0.00000051,-0.00000229,-0.00000780,0.00000275,0.00000482,-0.0000044
 1,0.00000211,0.00000033,-0.00000525,0.00000600,-0.00000133,-0.00000094
 ,-0.00000177,-0.00000017,-0.00000442,-0.00000708\\\@


 WE THE UNWILLING
 LED BY THE UNQUALIFIED
 HAVE BEEN DOING THE UNBELIEVABLE SO LONG WITH SO LITTLE
 THAT WE NOW ATTEMPT THE IMPOSSIBLE WITH NOTHING.

                                    -- ANONYMOUS
 Job cpu time:       1 days  7 hours 49 minutes 36.7 seconds.
 Elapsed time:       0 days  1 hours  8 minutes 17.4 seconds.
 File lengths (MBytes):  RWF=   1240 Int=      0 D2E=      0 Chk=     32 Scr=      8
 Normal termination of Gaussian 16 at Wed Feb  1 17:08:10 2023.
