 Entering Gaussian System, Link 0=g16
 Input=Nic4h3b4MidIRCFInter.gjf
 Output=Nic4h3b4MidIRCFInter.log
 Initial command:
 /sw/contrib/gaussian/g16/A03/g16/l1.exe "/gscratch/scrubbed/gds001/Gau-3023.inp" -scrdir="/gscratch/scrubbed/gds001/"
 Entering Link 1 = /sw/contrib/gaussian/g16/A03/g16/l1.exe PID=      3024.
  
 Copyright (c) 1988,1990,1992,1993,1995,1998,2003,2009,2016,
            Gaussian, Inc.  All Rights Reserved.
  
 This is part of the Gaussian(R) 16 program.  It is based on
 the Gaussian(R) 09 system (copyright 2009, Gaussian, Inc.),
 the Gaussian(R) 03 system (copyright 2003, Gaussian, Inc.),
 the Gaussian(R) 98 system (copyright 1998, Gaussian, Inc.),
 the Gaussian(R) 94 system (copyright 1995, Gaussian, Inc.),
 the Gaussian 92(TM) system (copyright 1992, Gaussian, Inc.),
 the Gaussian 90(TM) system (copyright 1990, Gaussian, Inc.),
 the Gaussian 88(TM) system (copyright 1988, Gaussian, Inc.),
 the Gaussian 86(TM) system (copyright 1986, Carnegie Mellon
 University), and the Gaussian 82(TM) system (copyright 1983,
 Carnegie Mellon University). Gaussian is a federally registered
 trademark of Gaussian, Inc.
  
 This software contains proprietary and confidential information,
 including trade secrets, belonging to Gaussian, Inc.
  
 This software is provided under written license and may be
 used, copied, transmitted, or stored only in accord with that
 written license.
  
 The following legend is applicable only to US Government
 contracts under FAR:
  
                    RESTRICTED RIGHTS LEGEND
  
 Use, reproduction and disclosure by the US Government is
 subject to restrictions as set forth in subparagraphs (a)
 and (c) of the Commercial Computer Software - Restricted
 Rights clause in FAR 52.227-19.
  
 Gaussian, Inc.
 340 Quinnipiac St., Bldg. 40, Wallingford CT 06492
  
  
 ---------------------------------------------------------------
 Warning -- This program may not be used in any manner that
 competes with the business of Gaussian, Inc. or will provide
 assistance to any competitor of Gaussian, Inc.  The licensee
 of this program is prohibited from giving any competitor of
 Gaussian, Inc. access to this program.  By using this program,
 the user acknowledges that Gaussian, Inc. is engaged in the
 business of creating and licensing software in the field of
 computational chemistry and represents and warrants to the
 licensee that it is not a competitor of Gaussian, Inc. and that
 it will not use this program in any manner prohibited above.
 ---------------------------------------------------------------
  

 Cite this work as:
 Gaussian 16, Revision A.03,
 M. J. Frisch, G. W. Trucks, H. B. Schlegel, G. E. Scuseria, 
 M. A. Robb, J. R. Cheeseman, G. Scalmani, V. Barone, 
 G. A. Petersson, H. Nakatsuji, X. Li, M. Caricato, A. V. Marenich, 
 J. Bloino, B. G. Janesko, R. Gomperts, B. Mennucci, H. P. Hratchian, 
 J. V. Ortiz, A. F. Izmaylov, J. L. Sonnenberg, D. Williams-Young, 
 F. Ding, F. Lipparini, F. Egidi, J. Goings, B. Peng, A. Petrone, 
 T. Henderson, D. Ranasinghe, V. G. Zakrzewski, J. Gao, N. Rega, 
 G. Zheng, W. Liang, M. Hada, M. Ehara, K. Toyota, R. Fukuda, 
 J. Hasegawa, M. Ishida, T. Nakajima, Y. Honda, O. Kitao, H. Nakai, 
 T. Vreven, K. Throssell, J. A. Montgomery, Jr., J. E. Peralta, 
 F. Ogliaro, M. J. Bearpark, J. J. Heyd, E. N. Brothers, K. N. Kudin, 
 V. N. Staroverov, T. A. Keith, R. Kobayashi, J. Normand, 
 K. Raghavachari, A. P. Rendell, J. C. Burant, S. S. Iyengar, 
 J. Tomasi, M. Cossi, J. M. Millam, M. Klene, C. Adamo, R. Cammi, 
 J. W. Ochterski, R. L. Martin, K. Morokuma, O. Farkas, 
 J. B. Foresman, and D. J. Fox, Gaussian, Inc., Wallingford CT, 2016.
 
 ******************************************
 Gaussian 16:  ES64L-G16RevA.03 25-Dec-2016
                23-Feb-2023 
 ******************************************
 %nprocshared=28
 Will use up to   28 processors via shared memory.
 %mem=41GB
 ----------------------------------------
 # wB97XD/aug-cc-pVDZ opt(MaxStep=1) freq
 ----------------------------------------
 1/8=1,18=20,19=15,26=3,38=1/1,3;
 2/9=110,12=2,17=6,18=5,40=1/2;
 3/5=16,7=10,11=2,25=1,30=1,71=1,74=-58/1,2,3;
 4//1;
 5/5=2,38=5/2;
 6/7=2,8=2,9=2,10=2,28=1/1;
 7//1,2,3,16;
 1/8=1,18=20,19=15,26=3/3(2);
 2/9=110/2;
 99//99;
 2/9=110/2;
 3/5=16,7=10,11=2,25=1,30=1,71=1,74=-58/1,2,3;
 4/5=5,16=3,69=1/1;
 5/5=2,38=5/2;
 7//1,2,3,16;
 1/8=1,18=20,19=15,26=3/3(-5);
 2/9=110/2;
 6/7=2,8=2,9=2,10=2,19=2,28=1/1;
 99/9=1/99;
 ----
 blah
 ----
 Symbolic Z-matrix:
 Charge =  1 Multiplicity = 1
 N                    -1.26822   1.93369  -0.53626 
 C                    -1.17822   3.06147   0.179 
 C                    -0.04083   3.39037   0.90678 
 C                     1.03353   2.50392   0.90265 
 C                     0.95634   1.32701   0.15863 
 C                    -0.22248   1.10299  -0.55232 
 C                     2.08819   0.32944   0.12897 
 C                     2.69095   0.04101  -1.25576 
 C                     3.26058  -1.39313  -1.13598 
 C                     2.85193  -1.8529    0.27095 
 N                     1.68841  -1.01293   0.60212 
 C                     1.33666  -1.05395   2.01822 
 H                    -2.04934   3.71643   0.16657 
 H                    -0.00365   4.31865   1.47353 
 H                     1.93179   2.7286    1.47911 
 H                    -0.33797   0.20751  -1.16428 
 H                     2.88701   0.70695   0.79534 
 H                     3.4513    0.78522  -1.51321 
 H                     1.91165   0.09092  -2.02518 
 H                     4.34796  -1.42007  -1.25757 
 H                     2.83154  -2.04559  -1.90492 
 H                     3.66434  -1.67081   0.99619 
 H                     2.58281  -2.9149    0.33334 
 H                     2.16908  -0.70459   2.65357 
 H                     1.0879   -2.08309   2.30267 
 H                     0.46062  -0.42103   2.20345 
 O                    -3.30597   0.5246   -1.48066 
 O                    -0.26532  -2.17911  -0.79188 
 O                    -2.74167  -1.77307  -0.72932 
 H                    -3.59437   0.72015  -2.37569 
 H                     0.07554  -3.00779  -1.13516 
 H                    -3.15917  -1.94862   0.15559 
 H                    -2.61119   1.19961  -1.20782 
 H                    -2.98063  -0.82069  -1.08297 
 H                    -1.73157  -1.94799  -0.71561 
 H                     0.46716  -1.71828  -0.25378 
 O                    -3.81772  -2.27906   1.61587 
 H                    -4.33907  -1.62725   2.09403 
 H                    -4.24537  -3.12689   1.77045 
 
 Add virtual bond connecting atoms H34        and O27        Dist= 2.72D+00.
 Add virtual bond connecting atoms H35        and O28        Dist= 2.81D+00.
 Add virtual bond connecting atoms O37        and H32        Dist= 3.09D+00.
 Add virtual bond connecting atoms H33        and N1         Dist= 3.16D+00.
 Add virtual bond connecting atoms H36        and N11        Dist= 3.12D+00.

 GradGradGradGradGradGradGradGradGradGradGradGradGradGradGradGradGradGrad
 Berny optimization.
 Initialization pass.
                           ----------------------------
                           !    Initial Parameters    !
                           ! (Angstroms and Degrees)  !
 --------------------------                            --------------------------
 ! Name  Definition              Value          Derivative Info.                !
 --------------------------------------------------------------------------------
 ! R1    R(1,2)                  1.3385         estimate D2E/DX2                !
 ! R2    R(1,6)                  1.3356         estimate D2E/DX2                !
 ! R3    R(1,33)                 1.6714         estimate D2E/DX2                !
 ! R4    R(2,3)                  1.3898         estimate D2E/DX2                !
 ! R5    R(2,13)                 1.0899         estimate D2E/DX2                !
 ! R6    R(3,4)                  1.3929         estimate D2E/DX2                !
 ! R7    R(3,14)                 1.0882         estimate D2E/DX2                !
 ! R8    R(4,5)                  1.3945         estimate D2E/DX2                !
 ! R9    R(4,15)                 1.0907         estimate D2E/DX2                !
 ! R10   R(5,6)                  1.3947         estimate D2E/DX2                !
 ! R11   R(5,7)                  1.509          estimate D2E/DX2                !
 ! R12   R(6,16)                 1.0907         estimate D2E/DX2                !
 ! R13   R(7,8)                  1.5375         estimate D2E/DX2                !
 ! R14   R(7,11)                 1.4784         estimate D2E/DX2                !
 ! R15   R(7,17)                 1.1067         estimate D2E/DX2                !
 ! R16   R(8,9)                  1.5478         estimate D2E/DX2                !
 ! R17   R(8,18)                 1.0946         estimate D2E/DX2                !
 ! R18   R(8,19)                 1.0963         estimate D2E/DX2                !
 ! R19   R(9,10)                 1.5355         estimate D2E/DX2                !
 ! R20   R(9,20)                 1.0945         estimate D2E/DX2                !
 ! R21   R(9,21)                 1.0959         estimate D2E/DX2                !
 ! R22   R(10,11)                1.4728         estimate D2E/DX2                !
 ! R23   R(10,22)                1.1041         estimate D2E/DX2                !
 ! R24   R(10,23)                1.0973         estimate D2E/DX2                !
 ! R25   R(11,12)                1.4597         estimate D2E/DX2                !
 ! R26   R(11,36)                1.6497         estimate D2E/DX2                !
 ! R27   R(12,24)                1.1039         estimate D2E/DX2                !
 ! R28   R(12,25)                1.0963         estimate D2E/DX2                !
 ! R29   R(12,26)                1.0965         estimate D2E/DX2                !
 ! R30   R(27,30)                0.9605         estimate D2E/DX2                !
 ! R31   R(27,33)                1.0064         estimate D2E/DX2                !
 ! R32   R(27,34)                1.4401         estimate D2E/DX2                !
 ! R33   R(28,31)                0.9596         estimate D2E/DX2                !
 ! R34   R(28,35)                1.4863         estimate D2E/DX2                !
 ! R35   R(28,36)                1.019          estimate D2E/DX2                !
 ! R36   R(29,32)                0.9941         estimate D2E/DX2                !
 ! R37   R(29,34)                1.0436         estimate D2E/DX2                !
 ! R38   R(29,35)                1.0252         estimate D2E/DX2                !
 ! R39   R(32,37)                1.6356         estimate D2E/DX2                !
 ! R40   R(37,38)                0.9619         estimate D2E/DX2                !
 ! R41   R(37,39)                0.9621         estimate D2E/DX2                !
 ! A1    A(2,1,6)              118.5436         estimate D2E/DX2                !
 ! A2    A(2,1,33)             129.7031         estimate D2E/DX2                !
 ! A3    A(6,1,33)             110.5557         estimate D2E/DX2                !
 ! A4    A(1,2,3)              122.2936         estimate D2E/DX2                !
 ! A5    A(1,2,13)             116.5177         estimate D2E/DX2                !
 ! A6    A(3,2,13)             121.1884         estimate D2E/DX2                !
 ! A7    A(2,3,4)              118.6259         estimate D2E/DX2                !
 ! A8    A(2,3,14)             120.1689         estimate D2E/DX2                !
 ! A9    A(4,3,14)             121.2022         estimate D2E/DX2                !
 ! A10   A(3,4,5)              119.736          estimate D2E/DX2                !
 ! A11   A(3,4,15)             120.1703         estimate D2E/DX2                !
 ! A12   A(5,4,15)             120.0936         estimate D2E/DX2                !
 ! A13   A(4,5,6)              117.0203         estimate D2E/DX2                !
 ! A14   A(4,5,7)              121.7958         estimate D2E/DX2                !
 ! A15   A(6,5,7)              121.1816         estimate D2E/DX2                !
 ! A16   A(1,6,5)              123.7609         estimate D2E/DX2                !
 ! A17   A(1,6,16)             115.7511         estimate D2E/DX2                !
 ! A18   A(5,6,16)             120.4873         estimate D2E/DX2                !
 ! A19   A(5,7,8)              115.8337         estimate D2E/DX2                !
 ! A20   A(5,7,11)             113.0251         estimate D2E/DX2                !
 ! A21   A(5,7,17)             107.7025         estimate D2E/DX2                !
 ! A22   A(8,7,11)             102.9395         estimate D2E/DX2                !
 ! A23   A(8,7,17)             108.8637         estimate D2E/DX2                !
 ! A24   A(11,7,17)            108.1931         estimate D2E/DX2                !
 ! A25   A(7,8,9)              104.3827         estimate D2E/DX2                !
 ! A26   A(7,8,18)             110.8908         estimate D2E/DX2                !
 ! A27   A(7,8,19)             110.1742         estimate D2E/DX2                !
 ! A28   A(9,8,18)             113.111          estimate D2E/DX2                !
 ! A29   A(9,8,19)             110.985          estimate D2E/DX2                !
 ! A30   A(18,8,19)            107.3231         estimate D2E/DX2                !
 ! A31   A(8,9,10)             104.5014         estimate D2E/DX2                !
 ! A32   A(8,9,20)             112.3244         estimate D2E/DX2                !
 ! A33   A(8,9,21)             110.6868         estimate D2E/DX2                !
 ! A34   A(10,9,20)            111.0282         estimate D2E/DX2                !
 ! A35   A(10,9,21)            111.1265         estimate D2E/DX2                !
 ! A36   A(20,9,21)            107.2383         estimate D2E/DX2                !
 ! A37   A(9,10,11)            104.2124         estimate D2E/DX2                !
 ! A38   A(9,10,22)            110.8929         estimate D2E/DX2                !
 ! A39   A(9,10,23)            114.0253         estimate D2E/DX2                !
 ! A40   A(11,10,22)           109.8484         estimate D2E/DX2                !
 ! A41   A(11,10,23)           110.2086         estimate D2E/DX2                !
 ! A42   A(22,10,23)           107.6204         estimate D2E/DX2                !
 ! A43   A(7,11,10)            103.4303         estimate D2E/DX2                !
 ! A44   A(7,11,12)            113.6512         estimate D2E/DX2                !
 ! A45   A(7,11,36)            114.9837         estimate D2E/DX2                !
 ! A46   A(10,11,12)           113.1098         estimate D2E/DX2                !
 ! A47   A(10,11,36)           102.9629         estimate D2E/DX2                !
 ! A48   A(12,11,36)           108.235          estimate D2E/DX2                !
 ! A49   A(11,12,24)           111.5762         estimate D2E/DX2                !
 ! A50   A(11,12,25)           109.4368         estimate D2E/DX2                !
 ! A51   A(11,12,26)           109.8873         estimate D2E/DX2                !
 ! A52   A(24,12,25)           108.5936         estimate D2E/DX2                !
 ! A53   A(24,12,26)           108.8172         estimate D2E/DX2                !
 ! A54   A(25,12,26)           108.4655         estimate D2E/DX2                !
 ! A55   A(30,27,33)           108.867          estimate D2E/DX2                !
 ! A56   A(30,27,34)           121.0225         estimate D2E/DX2                !
 ! A57   A(33,27,34)           113.3126         estimate D2E/DX2                !
 ! A58   A(31,28,35)           120.2041         estimate D2E/DX2                !
 ! A59   A(31,28,36)           108.9115         estimate D2E/DX2                !
 ! A60   A(35,28,36)           127.711          estimate D2E/DX2                !
 ! A61   A(32,29,34)           111.509          estimate D2E/DX2                !
 ! A62   A(32,29,35)           111.8238         estimate D2E/DX2                !
 ! A63   A(34,29,35)           112.6947         estimate D2E/DX2                !
 ! A64   A(1,33,27)            163.3871         estimate D2E/DX2                !
 ! A65   A(32,37,38)           121.6763         estimate D2E/DX2                !
 ! A66   A(32,37,39)           120.0301         estimate D2E/DX2                !
 ! A67   A(38,37,39)           106.0428         estimate D2E/DX2                !
 ! A68   L(29,32,37,2,-1)      181.0443         estimate D2E/DX2                !
 ! A69   L(27,34,29,4,-1)      177.7686         estimate D2E/DX2                !
 ! A70   L(28,35,29,1,-1)      179.3008         estimate D2E/DX2                !
 ! A71   L(11,36,28,1,-1)      181.7646         estimate D2E/DX2                !
 ! A72   L(29,32,37,2,-2)      181.5106         estimate D2E/DX2                !
 ! A73   L(27,34,29,4,-2)      176.7912         estimate D2E/DX2                !
 ! A74   L(28,35,29,1,-2)      176.2527         estimate D2E/DX2                !
 ! A75   L(11,36,28,1,-2)      179.1769         estimate D2E/DX2                !
 ! D1    D(6,1,2,3)             -0.3438         estimate D2E/DX2                !
 ! D2    D(6,1,2,13)           179.8268         estimate D2E/DX2                !
 ! D3    D(33,1,2,3)           165.8617         estimate D2E/DX2                !
 ! D4    D(33,1,2,13)          -13.9677         estimate D2E/DX2                !
 ! D5    D(2,1,6,5)              1.4064         estimate D2E/DX2                !
 ! D6    D(2,1,6,16)          -178.8913         estimate D2E/DX2                !
 ! D7    D(33,1,6,5)          -167.2951         estimate D2E/DX2                !
 ! D8    D(33,1,6,16)           12.4073         estimate D2E/DX2                !
 ! D9    D(2,1,33,27)         -130.9902         estimate D2E/DX2                !
 ! D10   D(6,1,33,27)           36.0833         estimate D2E/DX2                !
 ! D11   D(1,2,3,4)             -0.8593         estimate D2E/DX2                !
 ! D12   D(1,2,3,14)           179.7702         estimate D2E/DX2                !
 ! D13   D(13,2,3,4)           178.9623         estimate D2E/DX2                !
 ! D14   D(13,2,3,14)           -0.4082         estimate D2E/DX2                !
 ! D15   D(2,3,4,5)              1.0473         estimate D2E/DX2                !
 ! D16   D(2,3,4,15)          -178.9313         estimate D2E/DX2                !
 ! D17   D(14,3,4,5)          -179.589          estimate D2E/DX2                !
 ! D18   D(14,3,4,15)            0.4324         estimate D2E/DX2                !
 ! D19   D(3,4,5,6)             -0.0901         estimate D2E/DX2                !
 ! D20   D(3,4,5,7)           -179.5443         estimate D2E/DX2                !
 ! D21   D(15,4,5,6)           179.8885         estimate D2E/DX2                !
 ! D22   D(15,4,5,7)             0.4343         estimate D2E/DX2                !
 ! D23   D(4,5,6,1)             -1.183          estimate D2E/DX2                !
 ! D24   D(4,5,6,16)           179.1282         estimate D2E/DX2                !
 ! D25   D(7,5,6,1)            178.2748         estimate D2E/DX2                !
 ! D26   D(7,5,6,16)            -1.414          estimate D2E/DX2                !
 ! D27   D(4,5,7,8)           -120.4369         estimate D2E/DX2                !
 ! D28   D(4,5,7,11)           121.1335         estimate D2E/DX2                !
 ! D29   D(4,5,7,17)             1.677          estimate D2E/DX2                !
 ! D30   D(6,5,7,8)             60.1314         estimate D2E/DX2                !
 ! D31   D(6,5,7,11)           -58.2982         estimate D2E/DX2                !
 ! D32   D(6,5,7,17)          -177.7546         estimate D2E/DX2                !
 ! D33   D(5,7,8,9)           -153.2912         estimate D2E/DX2                !
 ! D34   D(5,7,8,18)            84.5951         estimate D2E/DX2                !
 ! D35   D(5,7,8,19)           -34.0759         estimate D2E/DX2                !
 ! D36   D(11,7,8,9)           -29.4343         estimate D2E/DX2                !
 ! D37   D(11,7,8,18)         -151.548          estimate D2E/DX2                !
 ! D38   D(11,7,8,19)           89.7811         estimate D2E/DX2                !
 ! D39   D(17,7,8,9)            85.2135         estimate D2E/DX2                !
 ! D40   D(17,7,8,18)          -36.9002         estimate D2E/DX2                !
 ! D41   D(17,7,8,19)         -155.5712         estimate D2E/DX2                !
 ! D42   D(5,7,11,10)          170.6147         estimate D2E/DX2                !
 ! D43   D(5,7,11,12)          -66.353          estimate D2E/DX2                !
 ! D44   D(5,7,11,36)           59.1639         estimate D2E/DX2                !
 ! D45   D(8,7,11,10)           44.9203         estimate D2E/DX2                !
 ! D46   D(8,7,11,12)          167.9526         estimate D2E/DX2                !
 ! D47   D(8,7,11,36)          -66.5306         estimate D2E/DX2                !
 ! D48   D(17,7,11,10)         -70.2119         estimate D2E/DX2                !
 ! D49   D(17,7,11,12)          52.8204         estimate D2E/DX2                !
 ! D50   D(17,7,11,36)         178.3373         estimate D2E/DX2                !
 ! D51   D(7,8,9,10)             3.9567         estimate D2E/DX2                !
 ! D52   D(7,8,9,20)          -116.499          estimate D2E/DX2                !
 ! D53   D(7,8,9,21)           123.6668         estimate D2E/DX2                !
 ! D54   D(18,8,9,10)          124.5994         estimate D2E/DX2                !
 ! D55   D(18,8,9,20)            4.1437         estimate D2E/DX2                !
 ! D56   D(18,8,9,21)         -115.6904         estimate D2E/DX2                !
 ! D57   D(19,8,9,10)         -114.7081         estimate D2E/DX2                !
 ! D58   D(19,8,9,20)          124.8362         estimate D2E/DX2                !
 ! D59   D(19,8,9,21)            5.0021         estimate D2E/DX2                !
 ! D60   D(8,9,10,11)           23.0934         estimate D2E/DX2                !
 ! D61   D(8,9,10,22)          -95.0436         estimate D2E/DX2                !
 ! D62   D(8,9,10,23)          143.2949         estimate D2E/DX2                !
 ! D63   D(20,9,10,11)         144.4105         estimate D2E/DX2                !
 ! D64   D(20,9,10,22)          26.2735         estimate D2E/DX2                !
 ! D65   D(20,9,10,23)         -95.3881         estimate D2E/DX2                !
 ! D66   D(21,9,10,11)         -96.3206         estimate D2E/DX2                !
 ! D67   D(21,9,10,22)         145.5425         estimate D2E/DX2                !
 ! D68   D(21,9,10,23)          23.8809         estimate D2E/DX2                !
 ! D69   D(9,10,11,7)          -42.5953         estimate D2E/DX2                !
 ! D70   D(9,10,11,12)        -165.9851         estimate D2E/DX2                !
 ! D71   D(9,10,11,36)          77.4417         estimate D2E/DX2                !
 ! D72   D(22,10,11,7)          76.2562         estimate D2E/DX2                !
 ! D73   D(22,10,11,12)        -47.1336         estimate D2E/DX2                !
 ! D74   D(22,10,11,36)       -163.7069         estimate D2E/DX2                !
 ! D75   D(23,10,11,7)        -165.3315         estimate D2E/DX2                !
 ! D76   D(23,10,11,12)         71.2786         estimate D2E/DX2                !
 ! D77   D(23,10,11,36)        -45.2946         estimate D2E/DX2                !
 ! D78   D(7,11,12,24)         -57.7463         estimate D2E/DX2                !
 ! D79   D(7,11,12,25)        -177.9546         estimate D2E/DX2                !
 ! D80   D(7,11,12,26)          63.0442         estimate D2E/DX2                !
 ! D81   D(10,11,12,24)         59.807          estimate D2E/DX2                !
 ! D82   D(10,11,12,25)        -60.4012         estimate D2E/DX2                !
 ! D83   D(10,11,12,26)       -179.4025         estimate D2E/DX2                !
 ! D84   D(36,11,12,24)        173.2214         estimate D2E/DX2                !
 ! D85   D(36,11,12,25)         53.0132         estimate D2E/DX2                !
 ! D86   D(36,11,12,26)        -65.988          estimate D2E/DX2                !
 ! D87   D(7,11,28,31)         120.9996         estimate D2E/DX2                !
 ! D88   D(7,11,28,35)         -79.659          estimate D2E/DX2                !
 ! D89   D(10,11,28,31)          9.5693         estimate D2E/DX2                !
 ! D90   D(10,11,28,35)        168.9107         estimate D2E/DX2                !
 ! D91   D(12,11,28,31)       -110.1847         estimate D2E/DX2                !
 ! D92   D(12,11,28,35)         49.1567         estimate D2E/DX2                !
 ! D93   D(30,27,29,32)       -134.6763         estimate D2E/DX2                !
 ! D94   D(30,27,29,35)        100.0112         estimate D2E/DX2                !
 ! D95   D(33,27,29,32)         92.5189         estimate D2E/DX2                !
 ! D96   D(33,27,29,35)        -32.7936         estimate D2E/DX2                !
 ! D97   D(30,27,33,1)        -143.1203         estimate D2E/DX2                !
 ! D98   D(34,27,33,1)          -5.3618         estimate D2E/DX2                !
 ! D99   D(31,28,29,32)         98.1055         estimate D2E/DX2                !
 ! D100  D(31,28,29,34)       -134.5543         estimate D2E/DX2                !
 ! D101  D(36,28,29,32)        -61.3598         estimate D2E/DX2                !
 ! D102  D(36,28,29,34)         65.9805         estimate D2E/DX2                !
 ! D103  D(34,29,37,38)         -2.5051         estimate D2E/DX2                !
 ! D104  D(34,29,37,39)        134.9438         estimate D2E/DX2                !
 ! D105  D(35,29,37,38)        124.8948         estimate D2E/DX2                !
 ! D106  D(35,29,37,39)        -97.6563         estimate D2E/DX2                !
 --------------------------------------------------------------------------------
 Trust Radius=1.00D-02 FncErr=1.00D-07 GrdErr=1.00D-06 EigMax=2.50D+02 EigMin=1.00D-04
 Number of steps in this run=    232 maximum allowed number of steps=    234.
 GradGradGradGradGradGradGradGradGradGradGradGradGradGradGradGradGradGrad

                          Input orientation:                          
 ---------------------------------------------------------------------
 Center     Atomic      Atomic             Coordinates (Angstroms)
 Number     Number       Type             X           Y           Z
 ---------------------------------------------------------------------
      1          7           0       -1.268218    1.933692   -0.536255
      2          6           0       -1.178220    3.061472    0.178999
      3          6           0       -0.040833    3.390371    0.906782
      4          6           0        1.033530    2.503921    0.902651
      5          6           0        0.956342    1.327009    0.158626
      6          6           0       -0.222477    1.102992   -0.552324
      7          6           0        2.088189    0.329439    0.128969
      8          6           0        2.690953    0.041014   -1.255764
      9          6           0        3.260584   -1.393134   -1.135977
     10          6           0        2.851926   -1.852901    0.270950
     11          7           0        1.688410   -1.012927    0.602123
     12          6           0        1.336660   -1.053953    2.018224
     13          1           0       -2.049343    3.716432    0.166565
     14          1           0       -0.003651    4.318645    1.473532
     15          1           0        1.931793    2.728596    1.479109
     16          1           0       -0.337970    0.207506   -1.164283
     17          1           0        2.887011    0.706950    0.795341
     18          1           0        3.451302    0.785220   -1.513209
     19          1           0        1.911650    0.090921   -2.025177
     20          1           0        4.347959   -1.420073   -1.257567
     21          1           0        2.831543   -2.045588   -1.904916
     22          1           0        3.664342   -1.670807    0.996186
     23          1           0        2.582810   -2.914896    0.333340
     24          1           0        2.169079   -0.704593    2.653566
     25          1           0        1.087902   -2.083086    2.302670
     26          1           0        0.460618   -0.421028    2.203448
     27          8           0       -3.305973    0.524603   -1.480655
     28          8           0       -0.265321   -2.179105   -0.791883
     29          8           0       -2.741674   -1.773066   -0.729315
     30          1           0       -3.594368    0.720152   -2.375689
     31          1           0        0.075541   -3.007786   -1.135165
     32          1           0       -3.159171   -1.948622    0.155588
     33          1           0       -2.611191    1.199607   -1.207824
     34          1           0       -2.980634   -0.820692   -1.082970
     35          1           0       -1.731570   -1.947993   -0.715605
     36          1           0        0.467163   -1.718283   -0.253776
     37          8           0       -3.817720   -2.279061    1.615866
     38          1           0       -4.339073   -1.627251    2.094026
     39          1           0       -4.245369   -3.126889    1.770448
 ---------------------------------------------------------------------
                    Distance matrix (angstroms):
                    1          2          3          4          5
     1  N    0.000000
     2  C    1.338498   0.000000
     3  C    2.389716   1.389781   0.000000
     4  C    2.773744   2.392984   1.392863   0.000000
     5  C    2.408234   2.750478   2.410717   1.394508   0.000000
     6  C    1.335625   2.298678   2.719207   2.378468   1.394721
     7  C    3.779103   4.258631   3.808810   2.537570   1.509007
     8  C    4.446904   5.113923   4.832955   3.670384   2.581309
     9  C    5.651326   6.424613   6.160693   4.929788   3.792718
    10  C    5.653800   6.356225   6.021980   4.763141   3.703739
    11  N    4.326675   4.999733   4.740478   3.589903   2.491569
    12  C    4.715589   5.161792   4.783807   3.740970   3.044951
    13  H    2.069366   1.089946   2.165260   3.393540   3.839733
    14  H    3.365468   2.153117   1.088247   2.166766   3.405943
    15  H    3.864406   3.387222   2.157952   1.090715   2.158617
    16  H    2.059004   3.264284   3.808967   3.380348   2.163011
    17  H    4.532546   4.738117   3.973089   2.583798   2.125409
    18  H    4.954523   5.429306   4.983791   3.825694   3.051785
    19  H    3.965382   4.819737   4.826484   3.894334   2.685055
    20  H    6.580993   7.258555   6.861944   5.572227   4.588587
    21  H    5.875027   6.819308   6.760609   5.640329   4.375956
    22  H    6.298487   6.820019   6.273104   4.935410   4.125733
    23  H    6.252633   7.063012   6.853374   5.664624   4.546392
    24  H    5.380568   5.613478   4.970281   3.827497   3.438439
    25  H    5.453925   6.009306   5.760319   4.796211   4.030258
    26  H    4.004941   4.348792   4.057038   3.252019   2.735447
    27  O    2.651390   3.703713   4.957179   5.331898   4.636640
    28  O    4.241020   5.407369   5.827085   5.146765   3.832592
    29  O    3.993545   5.161606   6.052474   5.933641   4.906549
    30  H    3.204243   4.224450   5.525604   5.945316   5.244043
    31  H    5.155830   6.335206   6.717105   5.953936   4.608704
    32  H    4.373410   5.387556   6.228416   6.161330   5.259963
    33  H    1.671365   2.728227   3.984689   4.409006   3.822396
    34  H    3.289057   4.462338   5.507685   5.577567   4.653382
    35  H    3.913354   5.118716   5.829997   5.484895   4.326059
    36  H    4.053179   5.073523   5.263392   4.414193   3.111780
    37  O    5.373907   6.128037   6.849097   6.849834   6.157837
    38  H    5.387842   5.970129   6.712745   6.881193   6.365127
    39  H    6.308232   7.087731   7.803763   7.766973   7.035124
                    6          7          8          9         10
     6  C    0.000000
     7  C    2.530162   0.000000
     8  C    3.179733   1.537530   0.000000
     9  C    4.324698   2.437592   1.547775   0.000000
    10  C    4.343620   2.316476   2.437967   1.535523   0.000000
    11  N    3.075931   1.478393   2.359582   2.374296   1.472753
    12  C    3.700140   2.459238   3.708377   3.710190   2.446899
    13  H    3.268686   5.347177   6.164586   7.483288   7.419623
    14  H    3.806889   4.700788   5.745265   7.077371   6.905686
    15  H    3.377897   2.757407   3.908830   5.058954   4.826635
    16  H    1.090746   2.752020   3.034874   3.938584   4.059631
    17  H    3.412033   1.106654   2.165396   2.877481   2.613246
    18  H    3.810634   2.182329   1.094647   2.218987   3.240703
    19  H    2.783538   2.174489   1.096267   2.193791   3.151946
    20  H    5.268027   3.176450   2.209173   1.094484   2.182159
    21  H    4.590218   3.214034   2.189765   1.095920   2.184476
    22  H    5.019881   2.690224   2.991504   2.187748   1.104149
    23  H    4.979705   3.288180   3.357730   2.221268   1.097337
    24  H    4.389150   2.729351   4.013869   4.003262   2.731620
    25  H    4.474279   3.397915   4.443425   4.125636   2.700491
    26  H    3.222349   2.741469   4.141742   4.465037   3.391631
    27  O    3.271740   5.632580   6.020594   6.849539   6.829375
    28  O    3.291107   3.560867   3.726080   3.628796   3.309570
    29  O    3.827452   5.337111   5.751649   6.028003   5.682892
    30  H    3.852386   6.222333   6.420336   7.279645   7.428325
    31  H    4.162573   4.097055   4.018719   3.570938   3.319523
    32  H    4.293910   5.720582   6.338337   6.571907   6.012966
    33  H    2.478905   4.962699   5.427464   6.419128   6.430414
    34  H    3.404347   5.337093   5.739276   6.267639   6.075962
    35  H    3.407717   4.526650   4.879204   5.040455   4.689432
    36  H    2.919645   2.639580   3.007382   2.947406   2.445517
    37  O    5.391206   6.625322   7.482769   7.645907   6.817227
    38  H    5.603906   6.999984   7.964011   8.260903   7.421926
    39  H    6.282581   7.399636   8.204031   8.233623   7.364994
                   11         12         13         14         15
    11  N    0.000000
    12  C    1.459710   0.000000
    13  H    6.043786   6.135978   0.000000
    14  H    5.661103   5.563985   2.501136   0.000000
    15  H    3.850628   3.866847   4.306743   2.504841   0.000000
    16  H    2.952264   3.811039   4.124623   4.896050   4.300609
    17  H    2.105221   2.645715   5.815491   4.675490   2.338169
    18  H    3.288731   4.508357   6.455288   5.774289   3.878090
    19  H    2.858500   4.241514   5.799787   5.812314   4.386087
    20  H    3.270690   4.464613   8.326903   7.702486   5.526184
    21  H    2.942514   4.313820   7.830387   7.743106   5.920643
    22  H    2.119528   2.615946   7.896633   7.039572   4.752861
    23  H    2.118887   2.802647   8.090684   7.766205   5.795309
    24  H    2.129444   1.103917   6.597403   5.598764   3.636267
    25  H    2.097072   1.096314   6.931065   6.546840   4.954058
    26  H    2.102869   1.096518   5.250464   4.817969   3.550937
    27  O    5.625462   6.023955   3.805289   5.833293   6.407182
    28  O    2.668387   3.424764   6.233676   6.886315   5.836972
    29  O    4.687876   4.969799   5.605043   7.032656   6.854443
    30  H    6.307033   6.838783   4.222304   6.376433   7.030773
    31  H    3.098222   3.918131   7.171105   7.777414   6.571619
    32  H    4.957213   4.947963   5.772753   7.139532   7.038891
    33  H    5.163118   5.574177   2.922161   4.870044   5.495100
    34  H    4.967541   5.320793   4.797305   6.466136   6.579790
    35  H    3.782462   4.205611   5.741508   6.859211   6.333047
    36  H    1.649707   2.521774   6.003800   6.296805   4.992270
    37  O    5.740056   5.313230   6.416663   7.622146   7.625761
    38  H    6.239689   5.705117   6.124779   7.384753   7.659980
    39  H    6.406524   5.959656   7.363831   8.574165   8.516391
                   16         17         18         19         20
    16  H    0.000000
    17  H    3.806583   0.000000
    18  H    3.848907   2.377804   0.000000
    19  H    2.411539   3.047317   1.764849   0.000000
    20  H    4.961416   3.297427   2.394298   2.967816   0.000000
    21  H    3.958634   3.856284   2.924211   2.329235   1.763476
    22  H    4.920791   2.509644   3.517743   3.912065   2.368460
    23  H    4.530257   3.663844   4.225504   3.879174   2.807353
    24  H    4.657595   2.441491   4.607131   4.752867   4.533916
    25  H    4.393141   3.645975   5.326704   4.912751   4.872663
    26  H    3.517728   3.023654   4.920647   4.499873   5.299824
    27  O    3.001613   6.600489   6.762377   5.263855   7.900266
    28  O    2.416583   4.559144   4.808411   3.378348   4.698441
    29  O    3.144782   6.336967   6.746278   5.177560   7.118044
    30  H    3.512042   7.215530   7.098561   5.552929   8.301284
    31  H    3.241904   5.042864   5.091716   3.710176   4.559536
    32  H    3.788156   6.634581   7.345552   5.884615   7.657243
    33  H    2.480664   5.872445   6.084308   4.727932   7.436059
    34  H    2.836807   6.347519   6.643332   5.064902   7.355135
    35  H    2.605688   5.537416   5.913441   4.375523   6.126426
    36  H    2.277263   3.583025   4.093749   2.915068   4.019590
    37  O    5.101069   7.385319   8.486437   7.190250   8.699011
    38  H    5.476471   7.703984   8.917517   7.680592   9.313465
    39  H    5.915962   8.155979   9.237194   7.916436   9.269702
                   21         22         23         24         25
    21  H    0.000000
    22  H    3.041448   0.000000
    23  H    2.413991   1.776748   0.000000
    24  H    4.797592   2.432342   3.231108   0.000000
    25  H    4.554720   2.918033   2.608624   1.786705   0.000000
    26  H    5.013894   3.644623   3.770992   1.789373   1.779260
    27  O    6.667457   7.716207   7.056805   6.969857   6.357651
    28  O    3.293514   4.347161   3.149502   4.468960   3.378859
    29  O    5.702373   6.635123   5.548256   6.058136   4.894354
    30  H    7.011653   8.353149   7.662241   7.780786   7.188104
    31  H    3.018922   4.382883   2.907152   4.903273   3.701169
    32  H    6.335908   6.880706   5.825429   6.014794   4.760848
    33  H    6.374997   7.244256   6.803085   6.433296   6.064893
    34  H    5.996446   7.014363   6.110936   6.363547   5.441432
    35  H    4.716565   5.667709   4.544124   5.302115   4.132512
    36  H    2.902358   3.433164   2.500510   3.518057   2.655902
    37  O    7.527491   7.532279   6.558654   6.276745   4.957341
    38  H    8.220966   8.078478   7.257445   6.597001   5.450080
    39  H    8.047372   8.079801   6.980992   6.913216   5.460455
                   26         27         28         29         30
    26  H    0.000000
    27  O    5.352947   0.000000
    28  O    3.548215   4.126743   0.000000
    29  O    4.547942   2.482384   2.510201   0.000000
    30  H    6.222033   0.960467   4.690063   3.107052   0.000000
    31  H    4.240983   4.902221   0.959553   3.102571   5.376305
    32  H    4.430592   2.969122   3.053718   0.994071   3.703932
    33  H    4.868187   1.006374   4.134224   3.013765   1.600132
    34  H    4.775195   1.440076   3.050072   1.043643   2.102853
    35  H    3.957042   3.029485   1.486310   1.025230   3.653066
    36  H    2.778644   4.557667   1.019043   3.244345   5.190811
    37  O    4.701246   4.208427   4.292643   2.629407   4.997767
    38  H    4.950150   4.298385   5.022795   3.247183   5.103258
    39  H    5.445685   4.978507   4.827486   3.216015   5.693328
                   31         32         33         34         35
    31  H    0.000000
    32  H    3.640224   0.000000
    33  H    4.992591   3.474265   0.000000
    34  H    3.758498   1.684674   2.057592   0.000000
    35  H    2.136549   1.672430   3.305056   1.722186   0.000000
    36  H    1.610290   3.656629   4.347477   3.657942   2.258424
    37  O    4.822519   1.635631   4.640050   3.179822   3.146011
    38  H    5.641132   2.291940   4.677490   3.548126   3.846553
    39  H    5.208362   2.275063   5.500837   3.880734   3.726854
                   36         37         38         39
    36  H    0.000000
    37  O    4.708530   0.000000
    38  H    5.349801   0.961926   0.000000
    39  H    5.318798   0.962077   1.537009   0.000000
 Stoichiometry    C10H23N2O4(1+)
 Framework group  C1[X(C10H23N2O4)]
 Deg. of freedom   111
 Full point group                 C1      NOp   1
 Largest Abelian subgroup         C1      NOp   1
 Largest concise Abelian subgroup C1      NOp   1
                         Standard orientation:                         
 ---------------------------------------------------------------------
 Center     Atomic      Atomic             Coordinates (Angstroms)
 Number     Number       Type             X           Y           Z
 ---------------------------------------------------------------------
      1          7           0       -1.233790    2.001560   -0.553572
      2          6           0       -1.112312    3.133084    0.151036
      3          6           0        0.036955    3.440685    0.869407
      4          6           0        1.089493    2.528421    0.867143
      5          6           0        0.979463    1.347217    0.134133
      6          6           0       -0.208586    1.145617   -0.568111
      7          6           0        2.086625    0.322249    0.107015
      8          6           0        2.674095    0.007087   -1.278464
      9          6           0        3.209520   -1.439351   -1.149061
     10          6           0        2.798107   -1.876647    0.264213
     11          7           0        1.657237   -1.005797    0.594420
     12          6           0        1.312909   -1.025791    2.012797
     13          1           0       -1.967376    3.808858    0.137660
     14          1           0        0.099931    4.372743    1.427603
     15          1           0        1.996299    2.736302    1.436482
     16          1           0       -0.349319    0.247838   -1.171365
     17          1           0        2.898250    0.686122    0.765456
     18          1           0        3.450721    0.730323   -1.546854
     19          1           0        1.891730    0.069109   -2.043877
     20          1           0        4.295192   -1.493742   -1.276547
     21          1           0        2.760301   -2.087953   -1.909691
     22          1           0        3.618934   -1.707937    0.983188
     23          1           0        2.503721   -2.931207    0.337629
     24          1           0        2.157256   -0.691149    2.640272
     25          1           0        1.040973   -2.046036    2.307847
     26          1           0        0.453553   -0.370184    2.197293
     27          8           0       -3.310576    0.634071   -1.473789
     28          8           0       -0.332306   -2.136458   -0.778028
     29          8           0       -2.797690   -1.669905   -0.705107
     30          1           0       -3.599396    0.828665   -2.368895
     31          1           0       -0.013632   -2.976161   -1.115796
     32          1           0       -3.214118   -1.827470    0.183677
     33          1           0       -2.598063    1.294393   -1.210943
     34          1           0       -3.015586   -0.715166   -1.065919
     35          1           0       -1.792055   -1.869166   -0.695539
     36          1           0        0.414267   -1.688823   -0.248215
     37          8           0       -3.871900   -2.128946    1.650553
     38          1           0       -4.374502   -1.460486    2.125795
     39          1           0       -4.319042   -2.964750    1.815133
 ---------------------------------------------------------------------
 Rotational constants (GHZ):           0.4650510           0.3482494           0.2522156
 Standard basis: Aug-CC-pVDZ (5D, 7F)
 There are   607 symmetry adapted cartesian basis functions of A   symmetry.
 There are   575 symmetry adapted basis functions of A   symmetry.
   575 basis functions,   941 primitive gaussians,   607 cartesian basis functions
    64 alpha electrons       64 beta electrons
       nuclear repulsion energy      1235.5612451257 Hartrees.
 NAtoms=   39 NActive=   39 NUniq=   39 SFac= 1.00D+00 NAtFMM=   60 NAOKFM=F Big=F
 Integral buffers will be    131072 words long.
 Raffenetti 2 integral format.
 Two-electron integral symmetry is turned on.
 Nuclear repulsion after empirical dispersion term =     1235.5312175498 Hartrees.
 One-electron integrals computed using PRISM.
 NBasis=   575 RedAO= T EigKep=  2.04D-06  NBF=   575
 NBsUse=   575 1.00D-06 EigRej= -1.00D+00 NBFU=   575
 ExpMin= 2.97D-02 ExpMax= 1.17D+04 ExpMxC= 4.01D+02 IAcc=3 IRadAn=         5 AccDes= 0.00D+00
 Harris functional with IExCor= 4639 and IRadAn=       5 diagonalized for initial guess.
 HarFok:  IExCor= 4639 AccDes= 0.00D+00 IRadAn=         5 IDoV= 1 UseB2=F ITyADJ=14
 ICtDFT=  3500011 ScaDFX=  1.000000  1.000000  1.000000  1.000000
 FoFCou: FMM=F IPFlag=           0 FMFlag=      100000 FMFlg1=           0
         NFxFlg=           0 DoJE=T BraDBF=F KetDBF=T FulRan=T
         wScrn=  0.000000 ICntrl=       500 IOpCl=  0 I1Cent=   200000004 NGrid=           0
         NMat0=    1 NMatS0=      1 NMatT0=    0 NMatD0=    1 NMtDS0=    0 NMtDT0=    0
 Petite list used in FoFCou.
 Requested convergence on RMS density matrix=1.00D-08 within 128 cycles.
 Requested convergence on MAX density matrix=1.00D-06.
 Requested convergence on             energy=1.00D-06.
 No special actions if energy rises.
 SCF Done:  E(RwB97XD) =  -805.022016639     A.U. after   16 cycles
            NFock= 16  Conv=0.16D-08     -V/T= 2.0062

 **********************************************************************

            Population analysis using the SCF density.

 **********************************************************************

 Orbital symmetries:
       Occupied  (A) (A) (A) (A) (A) (A) (A) (A) (A) (A) (A) (A)
                 (A) (A) (A) (A) (A) (A) (A) (A) (A) (A) (A) (A)
                 (A) (A) (A) (A) (A) (A) (A) (A) (A) (A) (A) (A)
                 (A) (A) (A) (A) (A) (A) (A) (A) (A) (A) (A) (A)
                 (A) (A) (A) (A) (A) (A) (A) (A) (A) (A) (A) (A)
                 (A) (A) (A) (A)
       Virtual   (A) (A) (A) (A) (A) (A) (A) (A) (A) (A) (A) (A)
                 (A) (A) (A) (A) (A) (A) (A) (A) (A) (A) (A) (A)
                 (A) (A) (A) (A) (A) (A) (A) (A) (A) (A) (A) (A)
                 (A) (A) (A) (A) (A) (A) (A) (A) (A) (A) (A) (A)
                 (A) (A) (A) (A) (A) (A) (A) (A) (A) (A) (A) (A)
                 (A) (A) (A) (A) (A) (A) (A) (A) (A) (A) (A) (A)
                 (A) (A) (A) (A) (A) (A) (A) (A) (A) (A) (A) (A)
                 (A) (A) (A) (A) (A) (A) (A) (A) (A) (A) (A) (A)
                 (A) (A) (A) (A) (A) (A) (A) (A) (A) (A) (A) (A)
                 (A) (A) (A) (A) (A) (A) (A) (A) (A) (A) (A) (A)
                 (A) (A) (A) (A) (A) (A) (A) (A) (A) (A) (A) (A)
                 (A) (A) (A) (A) (A) (A) (A) (A) (A) (A) (A) (A)
                 (A) (A) (A) (A) (A) (A) (A) (A) (A) (A) (A) (A)
                 (A) (A) (A) (A) (A) (A) (A) (A) (A) (A) (A) (A)
                 (A) (A) (A) (A) (A) (A) (A) (A) (A) (A) (A) (A)
                 (A) (A) (A) (A) (A) (A) (A) (A) (A) (A) (A) (A)
                 (A) (A) (A) (A) (A) (A) (A) (A) (A) (A) (A) (A)
                 (A) (A) (A) (A) (A) (A) (A) (A) (A) (A) (A) (A)
                 (A) (A) (A) (A) (A) (A) (A) (A) (A) (A) (A) (A)
                 (A) (A) (A) (A) (A) (A) (A) (A) (A) (A) (A) (A)
                 (A) (A) (A) (A) (A) (A) (A) (A) (A) (A) (A) (A)
                 (A) (A) (A) (A) (A) (A) (A) (A) (A) (A) (A) (A)
                 (A) (A) (A) (A) (A) (A) (A) (A) (A) (A) (A) (A)
                 (A) (A) (A) (A) (A) (A) (A) (A) (A) (A) (A) (A)
                 (A) (A) (A) (A) (A) (A) (A) (A) (A) (A) (A) (A)
                 (A) (A) (A) (A) (A) (A) (A) (A) (A) (A) (A) (A)
                 (A) (A) (A) (A) (A) (A) (A) (A) (A) (A) (A) (A)
                 (A) (A) (A) (A) (A) (A) (A) (A) (A) (A) (A) (A)
                 (A) (A) (A) (A) (A) (A) (A) (A) (A) (A) (A) (A)
                 (A) (A) (A) (A) (A) (A) (A) (A) (A) (A) (A) (A)
                 (A) (A) (A) (A) (A) (A) (A) (A) (A) (A) (A) (A)
                 (A) (A) (A) (A) (A) (A) (A) (A) (A) (A) (A) (A)
                 (A) (A) (A) (A) (A) (A) (A) (A) (A) (A) (A) (A)
                 (A) (A) (A) (A) (A) (A) (A) (A) (A) (A) (A) (A)
                 (A) (A) (A) (A) (A) (A) (A) (A) (A) (A) (A) (A)
                 (A) (A) (A) (A) (A) (A) (A) (A) (A) (A) (A) (A)
                 (A) (A) (A) (A) (A) (A) (A) (A) (A) (A) (A) (A)
                 (A) (A) (A) (A) (A) (A) (A) (A) (A) (A) (A) (A)
                 (A) (A) (A) (A) (A) (A) (A) (A) (A) (A) (A) (A)
                 (A) (A) (A) (A) (A) (A) (A) (A) (A) (A) (A) (A)
                 (A) (A) (A) (A) (A) (A) (A) (A) (A) (A) (A) (A)
                 (A) (A) (A) (A) (A) (A) (A) (A) (A) (A) (A) (A)
                 (A) (A) (A) (A) (A) (A) (A)
 The electronic state is 1-A.
 Alpha  occ. eigenvalues --  -19.45021 -19.43417 -19.40093 -19.40059 -14.58503
 Alpha  occ. eigenvalues --  -14.58278 -10.45793 -10.45675 -10.45185 -10.43834
 Alpha  occ. eigenvalues --  -10.43615 -10.43491 -10.43117 -10.42747 -10.40685
 Alpha  occ. eigenvalues --  -10.40410  -1.31237  -1.27590  -1.24463  -1.23962
 Alpha  occ. eigenvalues --   -1.18078  -1.16982  -1.03983  -1.00579  -0.99508
 Alpha  occ. eigenvalues --   -0.93761  -0.89160  -0.85654  -0.84550  -0.81060
 Alpha  occ. eigenvalues --   -0.80556  -0.79502  -0.79244  -0.78047  -0.76750
 Alpha  occ. eigenvalues --   -0.75146  -0.72780  -0.70937  -0.69996  -0.68841
 Alpha  occ. eigenvalues --   -0.66467  -0.65596  -0.64853  -0.64008  -0.62923
 Alpha  occ. eigenvalues --   -0.62169  -0.61573  -0.61230  -0.59930  -0.59603
 Alpha  occ. eigenvalues --   -0.59304  -0.58333  -0.56570  -0.56506  -0.55406
 Alpha  occ. eigenvalues --   -0.54689  -0.54227  -0.53801  -0.53647  -0.51812
 Alpha  occ. eigenvalues --   -0.48913  -0.48222  -0.45691  -0.44848
 Alpha virt. eigenvalues --   -0.08871  -0.07523  -0.07251  -0.05405  -0.04796
 Alpha virt. eigenvalues --   -0.04562  -0.03354  -0.03015  -0.02852  -0.02407
 Alpha virt. eigenvalues --   -0.02063  -0.01333  -0.00896  -0.00758  -0.00246
 Alpha virt. eigenvalues --   -0.00010   0.00174   0.00724   0.01197   0.01634
 Alpha virt. eigenvalues --    0.01942   0.02391   0.02472   0.02859   0.03025
 Alpha virt. eigenvalues --    0.03243   0.04084   0.04646   0.05064   0.05159
 Alpha virt. eigenvalues --    0.05378   0.05628   0.06026   0.06306   0.06564
 Alpha virt. eigenvalues --    0.06756   0.06969   0.07153   0.07328   0.07458
 Alpha virt. eigenvalues --    0.07760   0.08186   0.08411   0.08699   0.08864
 Alpha virt. eigenvalues --    0.09079   0.09405   0.09765   0.10276   0.10455
 Alpha virt. eigenvalues --    0.10593   0.10961   0.11301   0.11569   0.12202
 Alpha virt. eigenvalues --    0.12338   0.12431   0.12719   0.13055   0.13482
 Alpha virt. eigenvalues --    0.13602   0.14052   0.14252   0.14570   0.15004
 Alpha virt. eigenvalues --    0.15096   0.15508   0.15929   0.16214   0.16580
 Alpha virt. eigenvalues --    0.16857   0.17006   0.17275   0.17542   0.17825
 Alpha virt. eigenvalues --    0.18113   0.18422   0.18705   0.18946   0.19022
 Alpha virt. eigenvalues --    0.19513   0.19884   0.20024   0.20344   0.20618
 Alpha virt. eigenvalues --    0.20855   0.21068   0.21904   0.21921   0.22396
 Alpha virt. eigenvalues --    0.22898   0.23056   0.23636   0.24049   0.24147
 Alpha virt. eigenvalues --    0.24672   0.24764   0.25284   0.25874   0.26017
 Alpha virt. eigenvalues --    0.26192   0.26558   0.26992   0.27149   0.27554
 Alpha virt. eigenvalues --    0.27785   0.27990   0.28271   0.28305   0.29160
 Alpha virt. eigenvalues --    0.29377   0.29689   0.30245   0.30471   0.31229
 Alpha virt. eigenvalues --    0.31616   0.31851   0.32051   0.32488   0.33030
 Alpha virt. eigenvalues --    0.33271   0.33639   0.34022   0.34422   0.35069
 Alpha virt. eigenvalues --    0.35315   0.35821   0.36053   0.36836   0.37411
 Alpha virt. eigenvalues --    0.37683   0.38092   0.38565   0.38707   0.39085
 Alpha virt. eigenvalues --    0.39243   0.39695   0.40049   0.40528   0.40840
 Alpha virt. eigenvalues --    0.41149   0.41541   0.42510   0.42706   0.43091
 Alpha virt. eigenvalues --    0.43401   0.43556   0.44293   0.44400   0.44677
 Alpha virt. eigenvalues --    0.45615   0.45753   0.46111   0.46321   0.47141
 Alpha virt. eigenvalues --    0.47353   0.48044   0.48320   0.48540   0.49394
 Alpha virt. eigenvalues --    0.49663   0.49766   0.50246   0.50442   0.50553
 Alpha virt. eigenvalues --    0.51005   0.51481   0.51627   0.52044   0.52545
 Alpha virt. eigenvalues --    0.53065   0.53361   0.53835   0.54264   0.54321
 Alpha virt. eigenvalues --    0.54861   0.55110   0.55554   0.55627   0.56156
 Alpha virt. eigenvalues --    0.56566   0.56883   0.58400   0.58543   0.58622
 Alpha virt. eigenvalues --    0.59098   0.59577   0.59859   0.60215   0.60784
 Alpha virt. eigenvalues --    0.61063   0.61211   0.61928   0.62538   0.62843
 Alpha virt. eigenvalues --    0.63441   0.64000   0.64180   0.64277   0.64733
 Alpha virt. eigenvalues --    0.65404   0.66314   0.66745   0.67314   0.67777
 Alpha virt. eigenvalues --    0.68085   0.68429   0.68934   0.69370   0.70090
 Alpha virt. eigenvalues --    0.70510   0.70725   0.71260   0.71324   0.71515
 Alpha virt. eigenvalues --    0.71852   0.72430   0.72834   0.73302   0.74150
 Alpha virt. eigenvalues --    0.74690   0.75273   0.75688   0.75883   0.76589
 Alpha virt. eigenvalues --    0.76641   0.77535   0.77991   0.78721   0.78933
 Alpha virt. eigenvalues --    0.79458   0.79772   0.80181   0.80413   0.81834
 Alpha virt. eigenvalues --    0.82467   0.82853   0.83087   0.84162   0.85072
 Alpha virt. eigenvalues --    0.85228   0.85591   0.86373   0.86659   0.87917
 Alpha virt. eigenvalues --    0.88397   0.88792   0.89693   0.90594   0.91212
 Alpha virt. eigenvalues --    0.91421   0.92027   0.92529   0.93346   0.94249
 Alpha virt. eigenvalues --    0.94964   0.95045   0.95840   0.96514   0.97203
 Alpha virt. eigenvalues --    0.97772   0.98565   0.99655   1.00947   1.01400
 Alpha virt. eigenvalues --    1.01986   1.03285   1.03933   1.04333   1.04772
 Alpha virt. eigenvalues --    1.05801   1.07280   1.07674   1.08308   1.08920
 Alpha virt. eigenvalues --    1.10510   1.11450   1.11730   1.12387   1.12529
 Alpha virt. eigenvalues --    1.13633   1.14217   1.14769   1.15178   1.15757
 Alpha virt. eigenvalues --    1.17011   1.17810   1.19045   1.19264   1.20555
 Alpha virt. eigenvalues --    1.21506   1.22470   1.22635   1.23772   1.24156
 Alpha virt. eigenvalues --    1.25076   1.25294   1.26348   1.28612   1.29297
 Alpha virt. eigenvalues --    1.30496   1.31603   1.32778   1.32874   1.34151
 Alpha virt. eigenvalues --    1.34560   1.35132   1.36178   1.36652   1.37555
 Alpha virt. eigenvalues --    1.38723   1.39914   1.41130   1.41574   1.43023
 Alpha virt. eigenvalues --    1.43664   1.43911   1.44824   1.46412   1.46524
 Alpha virt. eigenvalues --    1.48790   1.49242   1.49403   1.49692   1.51839
 Alpha virt. eigenvalues --    1.52551   1.53801   1.54358   1.54652   1.56132
 Alpha virt. eigenvalues --    1.57491   1.58083   1.59374   1.60598   1.60979
 Alpha virt. eigenvalues --    1.61262   1.62634   1.63202   1.64348   1.64521
 Alpha virt. eigenvalues --    1.64976   1.66025   1.67070   1.67819   1.68677
 Alpha virt. eigenvalues --    1.68948   1.69813   1.69952   1.70964   1.71212
 Alpha virt. eigenvalues --    1.71708   1.72572   1.73143   1.74028   1.74497
 Alpha virt. eigenvalues --    1.75343   1.76319   1.76541   1.77181   1.79852
 Alpha virt. eigenvalues --    1.80369   1.81762   1.82241   1.82939   1.83531
 Alpha virt. eigenvalues --    1.84144   1.85062   1.85096   1.85897   1.86401
 Alpha virt. eigenvalues --    1.87028   1.87514   1.88936   1.89198   1.89723
 Alpha virt. eigenvalues --    1.90316   1.91581   1.92620   1.93526   1.94507
 Alpha virt. eigenvalues --    1.95062   1.95673   1.96750   1.98346   1.98843
 Alpha virt. eigenvalues --    1.99792   2.01070   2.01169   2.01853   2.03162
 Alpha virt. eigenvalues --    2.03445   2.03814   2.06780   2.07237   2.08383
 Alpha virt. eigenvalues --    2.10240   2.10744   2.11522   2.11871   2.12101
 Alpha virt. eigenvalues --    2.12579   2.12817   2.14792   2.15757   2.16943
 Alpha virt. eigenvalues --    2.17795   2.18351   2.19405   2.19577   2.21649
 Alpha virt. eigenvalues --    2.22383   2.23372   2.23812   2.25375   2.26263
 Alpha virt. eigenvalues --    2.27787   2.28449   2.29049   2.29910   2.30861
 Alpha virt. eigenvalues --    2.31319   2.32184   2.33154   2.34103   2.36308
 Alpha virt. eigenvalues --    2.36979   2.38004   2.40117   2.40964   2.41763
 Alpha virt. eigenvalues --    2.43375   2.44708   2.45964   2.46616   2.47436
 Alpha virt. eigenvalues --    2.49385   2.49972   2.51815   2.52445   2.53906
 Alpha virt. eigenvalues --    2.54967   2.55692   2.57042   2.57430   2.58399
 Alpha virt. eigenvalues --    2.59649   2.61566   2.62067   2.63340   2.63631
 Alpha virt. eigenvalues --    2.65069   2.66227   2.67905   2.68360   2.69851
 Alpha virt. eigenvalues --    2.70896   2.71072   2.72362   2.74408   2.74650
 Alpha virt. eigenvalues --    2.76754   2.77182   2.79888   2.81680   2.82881
 Alpha virt. eigenvalues --    2.84019   2.85088   2.85747   2.87521   2.89117
 Alpha virt. eigenvalues --    2.90115   2.90602   2.91644   2.93017   2.94217
 Alpha virt. eigenvalues --    2.95192   2.99542   3.01757   3.04989   3.06244
 Alpha virt. eigenvalues --    3.08856   3.14923   3.17738   3.22921   3.27726
 Alpha virt. eigenvalues --    3.29943   3.33014   3.33411   3.34058   3.35966
 Alpha virt. eigenvalues --    3.37006   3.38249   3.42321   3.43406   3.44499
 Alpha virt. eigenvalues --    3.46744   3.53168   3.56451   3.64780   3.66289
 Alpha virt. eigenvalues --    3.71248   3.82660   3.88546   3.91573   3.92809
 Alpha virt. eigenvalues --    4.01133   4.08385   4.11944   4.13226   4.32422
 Alpha virt. eigenvalues --    4.99545
          Condensed to atoms (all electrons):
               1          2          3          4          5          6
     1  N    8.044465   0.112141   0.309786  -0.525345  -0.271107  -0.625625
     2  C    0.112141  10.005831  -2.591112   1.640340  -1.201502  -0.962500
     3  C    0.309786  -2.591112  11.641490  -4.350260   0.774516  -0.461216
     4  C   -0.525345   1.640340  -4.350260  22.364345  -8.649458  -1.792531
     5  C   -0.271107  -1.201502   0.774516  -8.649458  23.699872  -3.818942
     6  C   -0.625625  -0.962500  -0.461216  -1.792531  -3.818942  16.532937
     7  C    0.765269  -0.939758   0.692083  -1.417786  -9.480529  -1.512375
     8  C   -0.011669  -0.129137   0.014842  -0.085858   0.104584  -0.906097
     9  C    0.012310   0.010021  -0.020133  -0.053896   0.369006  -0.008757
    10  C    0.042840  -0.026723  -0.014945   0.006225  -0.422120  -0.194731
    11  N   -0.070136   0.115916  -0.180296  -0.415142   2.153138   0.220073
    12  C   -0.024006  -0.019022   0.078486  -0.241708   0.751674  -0.056958
    13  H   -0.134054  -0.496397   0.087329   0.213512  -0.017141   0.098451
    14  H   -0.068100   0.398784  -1.186054   0.640945  -0.120264   0.016989
    15  H   -0.052473  -0.199885   0.652854  -2.486015   1.222023   0.169252
    16  H   -0.049111  -0.132484   0.100092  -0.188924  -0.797853  -1.105221
    17  H    0.008030   0.040945  -0.026486   0.011192   1.002970  -0.278830
    18  H   -0.019439   0.002309  -0.000755  -0.037126   0.431631   0.304257
    19  H    0.035064   0.009648  -0.028148   0.045881  -0.025793  -0.237392
    20  H   -0.001307   0.003055  -0.003631  -0.000470   0.003245   0.024773
    21  H    0.001304  -0.003005   0.001285   0.006070  -0.113932  -0.029999
    22  H   -0.001586  -0.001833   0.003764   0.026160   0.170668   0.021401
    23  H    0.002570  -0.000179  -0.001148   0.021001  -0.196680  -0.018272
    24  H   -0.002589   0.017362  -0.026479   0.036663   0.185063   0.012577
    25  H   -0.000409  -0.004939   0.014582  -0.020355  -0.052116  -0.037849
    26  H   -0.002396  -0.034716   0.056155  -0.019342   0.063593   0.059109
    27  O   -0.048258   0.043177  -0.015784   0.025802  -0.103235  -0.031534
    28  O    0.001789  -0.008108   0.006142  -0.011643  -0.036768  -0.076808
    29  O    0.019539   0.027057  -0.009416  -0.005773   0.030866  -0.119795
    30  H    0.000451  -0.016295   0.008524  -0.005196   0.007456   0.000459
    31  H   -0.002058   0.002048  -0.000318   0.002875   0.014967   0.029863
    32  H   -0.002323   0.000044   0.000603  -0.000482  -0.004759   0.015414
    33  H    0.160056   0.082234  -0.068483   0.035510  -0.026391  -0.137612
    34  H   -0.008722  -0.005469   0.002018   0.001817   0.010300   0.001992
    35  H    0.008330  -0.000391  -0.002570  -0.011102   0.019072  -0.034001
    36  H    0.009567  -0.023409   0.013153   0.004184  -0.243182  -0.118063
    37  O    0.000760   0.000425   0.000188  -0.001694  -0.001436   0.004521
    38  H    0.000325  -0.001038   0.001070  -0.000862  -0.000305  -0.000371
    39  H   -0.000057   0.000191  -0.000286   0.000088   0.000781   0.000272
               7          8          9         10         11         12
     1  N    0.765269  -0.011669   0.012310   0.042840  -0.070136  -0.024006
     2  C   -0.939758  -0.129137   0.010021  -0.026723   0.115916  -0.019022
     3  C    0.692083   0.014842  -0.020133  -0.014945  -0.180296   0.078486
     4  C   -1.417786  -0.085858  -0.053896   0.006225  -0.415142  -0.241708
     5  C   -9.480529   0.104584   0.369006  -0.422120   2.153138   0.751674
     6  C   -1.512375  -0.906097  -0.008757  -0.194731   0.220073  -0.056958
     7  C   27.110094  -1.415686  -0.003355  -0.329904  -6.540238  -1.292297
     8  C   -1.415686   8.529982  -0.894461   0.688418  -0.828041  -0.205606
     9  C   -0.003355  -0.894461   6.186895   0.059388  -0.423607  -0.004997
    10  C   -0.329904   0.688418   0.059388   5.801801  -0.187340  -0.210782
    11  N   -6.540238  -0.828041  -0.423607  -0.187340  16.920464   1.262306
    12  C   -1.292297  -0.205606  -0.004997  -0.210782   1.262306   4.911174
    13  H   -0.035677   0.003021   0.000496  -0.001157   0.006806   0.004052
    14  H    0.045092   0.000499   0.000289   0.000154  -0.002899  -0.010178
    15  H   -0.157775  -0.075751  -0.002208  -0.004475   0.030531   0.061864
    16  H    0.160736   0.049816  -0.006494   0.020388  -0.166329   0.053844
    17  H   -2.670483   0.740906  -0.058671   0.051373  -0.310511  -0.098955
    18  H    0.007788  -1.161205   0.169949  -0.218685   0.375949   0.087969
    19  H   -0.091818  -0.093137   0.323404   0.060688  -0.167656  -0.059012
    20  H   -0.102453   0.241370  -0.246309   0.193840  -0.146577  -0.021318
    21  H    0.322386   0.206503  -0.396352  -0.063623   0.092154   0.015564
    22  H    0.154639  -0.015897   0.011214  -0.370968  -0.340494  -0.016349
    23  H    0.620531   0.094856   0.112103  -0.143052  -1.334370  -0.181183
    24  H   -0.322888   0.053857  -0.000315   0.127919  -0.612183   0.286782
    25  H    0.236201  -0.078096   0.076366   0.021534  -0.335736   0.145807
    26  H   -0.016504   0.076541  -0.045374  -0.085500   0.116147   0.029354
    27  O    0.004623  -0.003561  -0.001698   0.000068   0.001407   0.000423
    28  O    0.085978   0.037797   0.003703   0.033367  -0.164380  -0.028921
    29  O   -0.020978   0.002727   0.000208   0.003314  -0.031156   0.016053
    30  H   -0.004227   0.001150   0.000254   0.000098   0.001375   0.000335
    31  H   -0.065465   0.018877  -0.014021   0.025669  -0.006975   0.022307
    32  H   -0.009070  -0.005080   0.000351  -0.001787   0.006957   0.002282
    33  H    0.033457  -0.010759  -0.001457  -0.000374  -0.007392  -0.005941
    34  H    0.005235   0.005168  -0.002055  -0.000161  -0.000205  -0.001043
    35  H    0.030989   0.006790   0.010961   0.009225  -0.027540  -0.014422
    36  H    0.792323   0.013240   0.022135  -0.150610  -0.517732  -0.221581
    37  O    0.001280  -0.000126  -0.000047   0.000177   0.002302  -0.001095
    38  H    0.000760   0.000086  -0.000049   0.000158   0.000277  -0.000504
    39  H   -0.000090   0.000001   0.000041  -0.000096  -0.000198   0.000181
              13         14         15         16         17         18
     1  N   -0.134054  -0.068100  -0.052473  -0.049111   0.008030  -0.019439
     2  C   -0.496397   0.398784  -0.199885  -0.132484   0.040945   0.002309
     3  C    0.087329  -1.186054   0.652854   0.100092  -0.026486  -0.000755
     4  C    0.213512   0.640945  -2.486015  -0.188924   0.011192  -0.037126
     5  C   -0.017141  -0.120264   1.222023  -0.797853   1.002970   0.431631
     6  C    0.098451   0.016989   0.169252  -1.105221  -0.278830   0.304257
     7  C   -0.035677   0.045092  -0.157775   0.160736  -2.670483   0.007788
     8  C    0.003021   0.000499  -0.075751   0.049816   0.740906  -1.161205
     9  C    0.000496   0.000289  -0.002208  -0.006494  -0.058671   0.169949
    10  C   -0.001157   0.000154  -0.004475   0.020388   0.051373  -0.218685
    11  N    0.006806  -0.002899   0.030531  -0.166329  -0.310511   0.375949
    12  C    0.004052  -0.010178   0.061864   0.053844  -0.098955   0.087969
    13  H    2.055767  -0.119674  -0.004775   0.008527   0.000426   0.001387
    14  H   -0.119674   2.146796  -0.143634  -0.008781   0.002420  -0.002458
    15  H   -0.004775  -0.143634   3.082121   0.001760  -0.176492   0.014921
    16  H    0.008527  -0.008781   0.001760   4.511618  -0.056039   0.095666
    17  H    0.000426   0.002420  -0.176492  -0.056039   3.624602  -0.356302
    18  H    0.001387  -0.002458   0.014921   0.095666  -0.356302   2.692893
    19  H   -0.001590   0.001539  -0.009848  -0.191382   0.242913  -0.733038
    20  H    0.000091  -0.000066   0.002671  -0.010195   0.067292  -0.310242
    21  H   -0.000045   0.000020  -0.000912   0.035041  -0.060802   0.182787
    22  H    0.000060  -0.000357   0.001664   0.018079  -0.110016   0.068667
    23  H   -0.000089   0.000111  -0.003465  -0.033017   0.104482  -0.043521
    24  H    0.000530  -0.000119   0.008800   0.003770   0.075036   0.009515
    25  H    0.000483  -0.001151   0.003641   0.004226   0.015671   0.002797
    26  H   -0.003532  -0.000048  -0.008200   0.000578   0.007956  -0.000924
    27  O    0.005478  -0.000081   0.000272  -0.000988  -0.000135   0.000168
    28  O   -0.000076   0.000116  -0.001016   0.043464  -0.001993   0.001799
    29  O    0.001295  -0.000406   0.000077   0.049557  -0.001054   0.000338
    30  H    0.003610  -0.000433   0.000282   0.004318  -0.000122  -0.000024
    31  H    0.000147  -0.000104   0.000994   0.001420  -0.001491   0.002858
    32  H    0.000326  -0.000108   0.000590   0.004879  -0.000800   0.000447
    33  H   -0.069897   0.009016  -0.002825  -0.032969  -0.000966  -0.000132
    34  H    0.001987  -0.000161  -0.000550  -0.011398   0.000599  -0.000468
    35  H   -0.002006   0.000649  -0.001775  -0.015690   0.001962  -0.001924
    36  H   -0.000210   0.001033  -0.010002  -0.045238   0.030878  -0.036573
    37  O    0.000002   0.000006  -0.000058  -0.004830   0.000164  -0.000016
    38  H   -0.000013  -0.000006  -0.000004  -0.000962   0.000040  -0.000005
    39  H    0.000002   0.000001  -0.000015  -0.000471   0.000011  -0.000005
              19         20         21         22         23         24
     1  N    0.035064  -0.001307   0.001304  -0.001586   0.002570  -0.002589
     2  C    0.009648   0.003055  -0.003005  -0.001833  -0.000179   0.017362
     3  C   -0.028148  -0.003631   0.001285   0.003764  -0.001148  -0.026479
     4  C    0.045881  -0.000470   0.006070   0.026160   0.021001   0.036663
     5  C   -0.025793   0.003245  -0.113932   0.170668  -0.196680   0.185063
     6  C   -0.237392   0.024773  -0.029999   0.021401  -0.018272   0.012577
     7  C   -0.091818  -0.102453   0.322386   0.154639   0.620531  -0.322888
     8  C   -0.093137   0.241370   0.206503  -0.015897   0.094856   0.053857
     9  C    0.323404  -0.246309  -0.396352   0.011214   0.112103  -0.000315
    10  C    0.060688   0.193840  -0.063623  -0.370968  -0.143052   0.127919
    11  N   -0.167656  -0.146577   0.092154  -0.340494  -1.334370  -0.612183
    12  C   -0.059012  -0.021318   0.015564  -0.016349  -0.181183   0.286782
    13  H   -0.001590   0.000091  -0.000045   0.000060  -0.000089   0.000530
    14  H    0.001539  -0.000066   0.000020  -0.000357   0.000111  -0.000119
    15  H   -0.009848   0.002671  -0.000912   0.001664  -0.003465   0.008800
    16  H   -0.191382  -0.010195   0.035041   0.018079  -0.033017   0.003770
    17  H    0.242913   0.067292  -0.060802  -0.110016   0.104482   0.075036
    18  H   -0.733038  -0.310242   0.182787   0.068667  -0.043521   0.009515
    19  H    2.406367   0.208132  -0.447963  -0.066102   0.068443   0.002520
    20  H    0.208132   2.101551  -0.615338  -0.255865   0.133464   0.004511
    21  H   -0.447963  -0.615338   2.274510   0.196165  -0.323427  -0.005305
    22  H   -0.066102  -0.255865   0.196165   2.558566  -0.598342   0.043030
    23  H    0.068443   0.133464  -0.323427  -0.598342   3.092955   0.031595
    24  H    0.002520   0.004511  -0.005305   0.043030   0.031595   2.050977
    25  H   -0.007758  -0.003504   0.012492   0.016543   0.005398  -0.357748
    26  H    0.007542   0.000082  -0.006531   0.009337   0.007848  -0.394150
    27  O    0.000049  -0.000104  -0.000236   0.000028   0.000042   0.000160
    28  O   -0.013325  -0.004726   0.010752  -0.005488   0.071606  -0.010324
    29  O   -0.001144  -0.000164   0.001153   0.000266   0.000823   0.000808
    30  H    0.000909   0.000018  -0.000068  -0.000007  -0.000015  -0.000035
    31  H    0.004395   0.000897  -0.000277   0.001875  -0.002897   0.006543
    32  H   -0.002460  -0.000101   0.000540   0.000354  -0.001967   0.000028
    33  H   -0.002305  -0.000042   0.000042   0.000143   0.000610   0.000411
    34  H    0.002574   0.000041  -0.000348  -0.000078   0.000638   0.000186
    35  H    0.005680  -0.000074  -0.002017  -0.002447   0.005039  -0.001195
    36  H    0.043435   0.003951   0.012263   0.033869   0.112283  -0.048824
    37  O    0.000139   0.000009  -0.000095  -0.000051   0.000159  -0.000148
    38  H    0.000031  -0.000001  -0.000008  -0.000024   0.000043  -0.000078
    39  H    0.000022   0.000008  -0.000017  -0.000008   0.000032   0.000068
              25         26         27         28         29         30
     1  N   -0.000409  -0.002396  -0.048258   0.001789   0.019539   0.000451
     2  C   -0.004939  -0.034716   0.043177  -0.008108   0.027057  -0.016295
     3  C    0.014582   0.056155  -0.015784   0.006142  -0.009416   0.008524
     4  C   -0.020355  -0.019342   0.025802  -0.011643  -0.005773  -0.005196
     5  C   -0.052116   0.063593  -0.103235  -0.036768   0.030866   0.007456
     6  C   -0.037849   0.059109  -0.031534  -0.076808  -0.119795   0.000459
     7  C    0.236201  -0.016504   0.004623   0.085978  -0.020978  -0.004227
     8  C   -0.078096   0.076541  -0.003561   0.037797   0.002727   0.001150
     9  C    0.076366  -0.045374  -0.001698   0.003703   0.000208   0.000254
    10  C    0.021534  -0.085500   0.000068   0.033367   0.003314   0.000098
    11  N   -0.335736   0.116147   0.001407  -0.164380  -0.031156   0.001375
    12  C    0.145807   0.029354   0.000423  -0.028921   0.016053   0.000335
    13  H    0.000483  -0.003532   0.005478  -0.000076   0.001295   0.003610
    14  H   -0.001151  -0.000048  -0.000081   0.000116  -0.000406  -0.000433
    15  H    0.003641  -0.008200   0.000272  -0.001016   0.000077   0.000282
    16  H    0.004226   0.000578  -0.000988   0.043464   0.049557   0.004318
    17  H    0.015671   0.007956  -0.000135  -0.001993  -0.001054  -0.000122
    18  H    0.002797  -0.000924   0.000168   0.001799   0.000338  -0.000024
    19  H   -0.007758   0.007542   0.000049  -0.013325  -0.001144   0.000909
    20  H   -0.003504   0.000082  -0.000104  -0.004726  -0.000164   0.000018
    21  H    0.012492  -0.006531  -0.000236   0.010752   0.001153  -0.000068
    22  H    0.016543   0.009337   0.000028  -0.005488   0.000266  -0.000007
    23  H    0.005398   0.007848   0.000042   0.071606   0.000823  -0.000015
    24  H   -0.357748  -0.394150   0.000160  -0.010324   0.000808  -0.000035
    25  H    2.142418  -0.645620  -0.000294   0.014205   0.002470   0.000051
    26  H   -0.645620   1.953746   0.000805   0.013746   0.004236   0.000093
    27  O   -0.000294   0.000805   8.101916   0.000258  -0.086882   0.389623
    28  O    0.014205   0.013746   0.000258   8.222918  -0.058692  -0.000586
    29  O    0.002470   0.004236  -0.086882  -0.058692   8.138974   0.005361
    30  H    0.000051   0.000093   0.389623  -0.000586   0.005361   0.563368
    31  H   -0.000005  -0.001597   0.001621   0.385030   0.016605  -0.000140
    32  H    0.000480  -0.001383   0.004679  -0.010422   0.280826   0.000267
    33  H   -0.001279   0.000694   0.223373  -0.001006  -0.028032  -0.097680
    34  H    0.000331  -0.000949   0.018186  -0.006153   0.173819  -0.010097
    35  H    0.000382   0.002016  -0.023125   0.039859   0.139360  -0.000786
    36  H    0.055051   0.008860  -0.006773   0.026119  -0.054690  -0.000138
    37  O    0.000096  -0.001913   0.000190   0.000148  -0.079681   0.000514
    38  H   -0.000211   0.000109  -0.000298  -0.000126   0.001749   0.000059
    39  H   -0.000036   0.000443  -0.000111   0.000110   0.001232  -0.000119
              31         32         33         34         35         36
     1  N   -0.002058  -0.002323   0.160056  -0.008722   0.008330   0.009567
     2  C    0.002048   0.000044   0.082234  -0.005469  -0.000391  -0.023409
     3  C   -0.000318   0.000603  -0.068483   0.002018  -0.002570   0.013153
     4  C    0.002875  -0.000482   0.035510   0.001817  -0.011102   0.004184
     5  C    0.014967  -0.004759  -0.026391   0.010300   0.019072  -0.243182
     6  C    0.029863   0.015414  -0.137612   0.001992  -0.034001  -0.118063
     7  C   -0.065465  -0.009070   0.033457   0.005235   0.030989   0.792323
     8  C    0.018877  -0.005080  -0.010759   0.005168   0.006790   0.013240
     9  C   -0.014021   0.000351  -0.001457  -0.002055   0.010961   0.022135
    10  C    0.025669  -0.001787  -0.000374  -0.000161   0.009225  -0.150610
    11  N   -0.006975   0.006957  -0.007392  -0.000205  -0.027540  -0.517732
    12  C    0.022307   0.002282  -0.005941  -0.001043  -0.014422  -0.221581
    13  H    0.000147   0.000326  -0.069897   0.001987  -0.002006  -0.000210
    14  H   -0.000104  -0.000108   0.009016  -0.000161   0.000649   0.001033
    15  H    0.000994   0.000590  -0.002825  -0.000550  -0.001775  -0.010002
    16  H    0.001420   0.004879  -0.032969  -0.011398  -0.015690  -0.045238
    17  H   -0.001491  -0.000800  -0.000966   0.000599   0.001962   0.030878
    18  H    0.002858   0.000447  -0.000132  -0.000468  -0.001924  -0.036573
    19  H    0.004395  -0.002460  -0.002305   0.002574   0.005680   0.043435
    20  H    0.000897  -0.000101  -0.000042   0.000041  -0.000074   0.003951
    21  H   -0.000277   0.000540   0.000042  -0.000348  -0.002017   0.012263
    22  H    0.001875   0.000354   0.000143  -0.000078  -0.002447   0.033869
    23  H   -0.002897  -0.001967   0.000610   0.000638   0.005039   0.112283
    24  H    0.006543   0.000028   0.000411   0.000186  -0.001195  -0.048824
    25  H   -0.000005   0.000480  -0.001279   0.000331   0.000382   0.055051
    26  H   -0.001597  -0.001383   0.000694  -0.000949   0.002016   0.008860
    27  O    0.001621   0.004679   0.223373   0.018186  -0.023125  -0.006773
    28  O    0.385030  -0.010422  -0.001006  -0.006153   0.039859   0.026119
    29  O    0.016605   0.280826  -0.028032   0.173819   0.139360  -0.054690
    30  H   -0.000140   0.000267  -0.097680  -0.010097  -0.000786  -0.000138
    31  H    0.624718  -0.000740  -0.000460  -0.000406  -0.017384  -0.190237
    32  H   -0.000740   0.457562   0.000009  -0.051436  -0.051122   0.000645
    33  H   -0.000460   0.000009   0.565152  -0.006714   0.003284   0.003726
    34  H   -0.000406  -0.051436  -0.006714   0.399944  -0.028397   0.009715
    35  H   -0.017384  -0.051122   0.003284  -0.028397   0.432759   0.005157
    36  H   -0.190237   0.000645   0.003726   0.009715   0.005157   0.760085
    37  O    0.001197  -0.007926  -0.001425  -0.002981   0.005954  -0.003243
    38  H   -0.000432  -0.004840   0.000112   0.000001   0.002611   0.001659
    39  H    0.000133  -0.009337   0.000110  -0.000232   0.001920  -0.001142
              37         38         39
     1  N    0.000760   0.000325  -0.000057
     2  C    0.000425  -0.001038   0.000191
     3  C    0.000188   0.001070  -0.000286
     4  C   -0.001694  -0.000862   0.000088
     5  C   -0.001436  -0.000305   0.000781
     6  C    0.004521  -0.000371   0.000272
     7  C    0.001280   0.000760  -0.000090
     8  C   -0.000126   0.000086   0.000001
     9  C   -0.000047  -0.000049   0.000041
    10  C    0.000177   0.000158  -0.000096
    11  N    0.002302   0.000277  -0.000198
    12  C   -0.001095  -0.000504   0.000181
    13  H    0.000002  -0.000013   0.000002
    14  H    0.000006  -0.000006   0.000001
    15  H   -0.000058  -0.000004  -0.000015
    16  H   -0.004830  -0.000962  -0.000471
    17  H    0.000164   0.000040   0.000011
    18  H   -0.000016  -0.000005  -0.000005
    19  H    0.000139   0.000031   0.000022
    20  H    0.000009  -0.000001   0.000008
    21  H   -0.000095  -0.000008  -0.000017
    22  H   -0.000051  -0.000024  -0.000008
    23  H    0.000159   0.000043   0.000032
    24  H   -0.000148  -0.000078   0.000068
    25  H    0.000096  -0.000211  -0.000036
    26  H   -0.001913   0.000109   0.000443
    27  O    0.000190  -0.000298  -0.000111
    28  O    0.000148  -0.000126   0.000110
    29  O   -0.079681   0.001749   0.001232
    30  H    0.000514   0.000059  -0.000119
    31  H    0.001197  -0.000432   0.000133
    32  H   -0.007926  -0.004840  -0.009337
    33  H   -0.001425   0.000112   0.000110
    34  H   -0.002981   0.000001  -0.000232
    35  H    0.005954   0.002611   0.001920
    36  H   -0.003243   0.001659  -0.001142
    37  O    7.699727   0.355451   0.365184
    38  H    0.355451   0.552780  -0.072101
    39  H    0.365184  -0.072101   0.547872
 Mulliken charges:
               1
     1  N   -0.613827
     2  C    0.286373
     3  C    0.528561
     4  C    1.238357
     5  C    0.568089
     6  C    1.053136
     7  C    1.359891
     8  C    1.029141
     9  C    0.815161
    10  C    1.280388
    11  N   -1.488666
    12  C    0.985424
    13  H   -0.607454
    14  H   -0.599375
    15  H   -0.912162
    16  H   -1.309402
    17  H   -0.819722
    18  H   -0.531252
    19  H   -0.289506
    20  H   -0.266513
    21  H   -0.300732
    22  H   -0.550579
    23  H   -0.605006
    24  H   -0.176332
    25  H   -0.224119
    26  H   -0.150309
    27  O   -0.499251
    28  O   -0.558346
    29  O   -0.420849
    30  H    0.147392
    31  H    0.139969
    32  H    0.388862
    33  H    0.386201
    34  H    0.503468
    35  H    0.505972
    36  H    0.708315
    37  O   -0.331830
    38  H    0.164915
    39  H    0.165617
 Sum of Mulliken charges =   1.00000
 Mulliken charges with hydrogens summed into heavy atoms:
               1
     1  N   -0.613827
     2  C   -0.321080
     3  C   -0.070814
     4  C    0.326195
     5  C    0.568089
     6  C   -0.256267
     7  C    0.540169
     8  C    0.208383
     9  C    0.247916
    10  C    0.124803
    11  N   -1.488666
    12  C    0.434664
    27  O    0.034342
    28  O    0.289939
    29  O    0.977452
    37  O   -0.001298
 Electronic spatial extent (au):  <R**2>=           4757.0716
 Charge=              1.0000 electrons
 Dipole moment (field-independent basis, Debye):
    X=             -3.9256    Y=             -2.3644    Z=              1.7779  Tot=              4.9154
[...]
 -0.00064304,-0.00074026,-0.00032091,0.00089064,-0.00061541,-0.00000715
 ,-0.00004814,0.00005960,0.00007747,0.00008360,-0.00000180,0.00058478,-
 0.00020729,-0.00002211,-0.00218704,-0.00220002,-0.00161039,-0.00039153
 ,0.00008240,0.00053696,-0.00001357,0.00002108,0.00000692,0.00003284,0.
 00000108,0.00000478,0.00001962,0.00008436,0.00004401,-0.00110752,-0.00
 032574,0.00050469,-0.00010063,-0.00032771,0.00003613,-0.00002656,-0.00
 003586,0.00002227,-0.00000166,0.00006487,0.00004447,-0.00003774,-0.000
 08230,-0.00001007,0.00005321,-0.00007822,-0.00010304,-0.00013990,-0.00
 001383,-0.00004561,0.00010946,-0.00005423,0.00007301,-0.00005635,-0.00
 007916,-0.00024350,0.00005343,-0.00003067,0.00006679,0.00004596,-0.000
 05197,-0.00012326,-0.00141895,-0.00162430,0.00029130,-0.00982434,-0.02
 147322,-0.01049254,0.02488750,-0.05330942,0.02698326,-0.00009670,-0.00
 015989,0.00029448,0.00576481,-0.00085265,0.00114149,-0.00791366,0.0034
 9879,-0.00965219,-0.00004178,-0.00138132,0.00008963,0.02502988,0.00339
 858,-0.00042280,-0.03359470,0.06837894,0.00010019,-0.00016557,-0.00022
 669,0.00002392,-0.00001801,0.00003885,-0.00003566,-0.00001202,-0.00000
 710,-0.00008666,-0.00002694,-0.00003688,0.00003045,-0.00016349,-0.0000
 9687,-0.00016405,0.00043765,0.00006051,-0.00011690,-0.00016705,-0.0000
 4022,0.00006431,-0.00000692,0.00004808,0.00002642,-0.00000334,0.000003
 16,-0.00001815,0.00001352,-0.00001054,-0.00028401,-0.00047904,-0.00010
 405,-0.00012089,0.00005686,0.00022775,0.00000238,-0.00001062,0.0000062
 9,-0.00000551,-0.00000405,0.00000020,-0.00000526,-0.00002249,-0.000003
 22,0.00033214,0.00026314,0.00032555,-0.00001212,-0.00001790,-0.0000004
 7,-0.00000249,0.00001008,-0.00002251,-0.00001037,0.00001969,-0.0000212
 3,0.00001482,0.00001795,-0.00000787,-0.00001148,-0.00000989,0.00003000
 ,0.00001765,0.00001318,-0.00000672,-0.00000500,0.00004021,-0.00002141,
 0.00011050,0.00002724,-0.00007632,-0.00010649,0.00009521,-0.00006692,-
 0.00002414,-0.00017919,-0.00009353,0.00076089,0.00070573,-0.00030840,-
 0.00318047,-0.00813802,-0.01385594,-0.04002033,0.03201094,-0.05273200,
 -0.00022181,0.00011948,0.00011545,0.00581070,0.00079325,0.00050233,0.0
 2519206,-0.00971835,0.01126614,0.00002320,0.00042962,0.00026327,-0.007
 45094,-0.00474534,-0.00141471,0.01930122,-0.01547945,0.06018571,-0.001
 49860,-0.00084780,-0.00064519,-0.00032680,0.00028216,-0.00012599,-0.00
 002787,-0.00032488,-0.00011223,-0.00072082,0.00055776,-0.00020079,0.00
 147260,-0.00132337,-0.00068310,0.00077760,0.00171493,0.00198804,0.0019
 8070,-0.00772322,0.00685411,-0.00014360,0.00002435,0.00079962,-0.00026
 240,-0.00001116,0.00125672,-0.01199312,0.00429664,-0.00018945,0.005261
 63,0.01774301,0.00877537,0.00540494,0.00176221,-0.00669460,-0.00000850
 ,-0.00003921,-0.00004902,-0.00011289,0.00003495,0.00003041,-0.00000559
 ,-0.00035718,-0.00017426,0.00002416,0.00174822,-0.00120036,0.00212935,
 0.00361482,-0.00028974,0.00019004,0.00005373,-0.00040942,-0.00009927,0
 .00013483,-0.00043800,0.00023933,0.00015792,-0.00047301,0.00002639,-0.
 00017183,-0.00034966,0.00224449,-0.00028499,0.00064279,0.00042564,-0.0
 0087306,-0.00021803,0.00086009,0.00043180,0.00384831,0.00018801,-0.000
 67139,0.00095625,-0.00033835,0.00076598,0.00119847,-0.00020167,-0.0026
 8416,0.00006528,-0.20196397,-0.10350337,-0.09238673,0.00490252,-0.0022
 6711,0.00008938,-0.00013055,0.00007773,-0.00008513,0.01866232,0.012671
 26,0.01114160,-0.00152386,-0.00054706,0.00157227,0.00144482,0.00136755
 ,0.00081501,-0.00114204,0.00381515,-0.00132698,-0.00916846,0.00109407,
 -0.00058613,0.18286894,-0.00093891,-0.00036756,-0.00055393,0.00013046,
 0.00071083,0.00048570,-0.00065501,0.00009589,-0.00017658,-0.00011011,-
 0.00041272,-0.00032903,0.00063190,-0.00030904,-0.00043525,-0.00019449,
 -0.00112754,-0.00010647,-0.00412914,-0.00754370,0.00095555,-0.00024269
 ,0.00035842,0.00042795,-0.00001432,0.00034773,0.00061864,0.00054986,0.
 00660947,0.00451655,0.01568295,-0.00553551,0.00685976,0.00240721,0.001
 29760,-0.00565448,-0.00000550,0.00005021,0.00004217,-0.00006996,0.0000
 4162,-0.00000403,0.00002747,-0.00012380,-0.00002330,0.00156615,-0.0007
 6263,0.00137593,0.00120196,0.00125619,0.00047159,0.00032057,-0.0000755
 2,-0.00023233,-0.00002518,0.00004383,0.00001708,0.00001194,-0.00017979
 ,-0.00030032,0.00007339,-0.00021620,-0.00068819,0.00304126,-0.00145681
 ,-0.00009234,0.00143346,-0.00167243,0.00034960,0.00071915,0.00028605,0
 .00238652,0.00017285,-0.00046976,0.00130839,-0.00033095,0.00011267,0.0
 0034216,-0.00062772,-0.00316104,0.00005345,-0.06424908,-0.10435666,-0.
 06743304,0.01200531,-0.00472542,-0.00068115,-0.00005502,0.00002196,-0.
 00004389,-0.02051154,-0.01292490,-0.01057059,-0.00092150,-0.00085936,0
 .00211415,0.00195739,0.00139815,0.00101051,-0.00047417,0.00480832,-0.0
 0150769,-0.01805504,0.00678886,0.00294622,0.06906339,0.12177604,-0.000
 68539,-0.00101662,-0.00080135,-0.00009487,0.00015482,0.00001819,-0.000
 08024,-0.00022482,-0.00009098,-0.00044606,0.00024633,-0.00019666,0.000
 65129,-0.00088253,-0.00062965,0.00072379,0.00150075,0.00177053,0.00416
 563,-0.00404602,0.00610295,0.00033892,0.00049666,0.00089238,0.00047285
 ,0.00040762,0.00099732,-0.00208808,0.00415570,0.00325763,0.01376771,0.
 01124840,-0.01288513,-0.00453799,-0.00269731,-0.00834310,-0.00000747,-
 0.00005377,-0.00003063,-0.00006786,0.00001070,0.00001132,-0.00001793,-
 0.00024994,-0.00010030,-0.00080635,0.00167272,-0.00054391,0.00138559,0
 .00273312,-0.00050710,-0.00011888,-0.00006574,-0.00049165,-0.00016045,
 0.00047881,-0.00073122,-0.00015400,-0.00017623,-0.00049405,0.00032381,
 -0.00057848,-0.00086864,0.00208065,-0.00080803,0.00001687,0.00026822,-
 0.00060654,0.00024976,0.00107866,0.00040447,0.00023388,-0.00037234,0.0
 0014151,-0.00013031,-0.00020017,-0.00012241,0.00037074,-0.00008980,-0.
 00204412,0.00003970,-0.06692537,-0.07298407,-0.07112375,0.00781126,-0.
 00408252,0.00055839,-0.00011725,0.00003604,-0.00005637,-0.01135800,-0.
 00656055,-0.00700264,-0.00102514,-0.00041833,0.00177813,0.00094217,0.0
 0086311,0.00063050,-0.00028186,0.00310984,-0.00096092,-0.01210012,0.00
 633715,-0.00099964,0.06728814,0.06343974,0.09077336,-0.00012645,-0.000
 15790,-0.00002446,-0.00011860,0.00009100,-0.00002801,0.00007293,-0.000
 03993,-0.00000123,-0.00002121,0.00007676,0.00002360,-0.00004005,-0.000
 11591,-0.00006331,0.00008502,0.00012270,0.00015025,0.00004650,0.000174
 14,-0.00007013,0.00001818,-0.00000036,0.00001607,0.00001009,0.00001242
 ,0.00000847,0.00016976,-0.00006972,-0.00001453,-0.00045055,-0.00026700
 ,-0.00015767,0.00004083,0.00002059,0.00004983,0.00000746,-0.00001853,0
 .00000113,-0.00000829,-0.00000704,-0.00000682,-0.00000394,0.00000514,-
 0.00000306,0.00007663,0.00005568,-0.00008859,-0.00004168,-0.00005270,-
 0.00001352,-0.00002386,-0.00001410,-0.00000136,0.00000954,0.00002092,-
 0.00001950,-0.00002884,-0.00001522,-0.00000033,0.00002511,-0.00001198,
 -0.00002550,-0.00005103,-0.00001451,-0.00001986,0.00003130,-0.00002201
 ,0.00001281,-0.00007876,-0.00003418,-0.00000070,0.00008120,-0.00004724
 ,0.00003894,0.00002494,0.00009065,0.00002229,0.00091988,-0.00211430,0.
 00047601,-0.00187825,-0.00017514,-0.00011835,-0.00821143,-0.00831438,0
 .01730192,-0.00026889,-0.00012538,-0.00008247,0.00000316,-0.00011230,-
 0.00013070,-0.00104334,0.00131368,-0.00368675,0.00021443,0.00023242,0.
 00012464,-0.00245335,0.00458670,-0.00044172,0.00291112,-0.00080126,0.0
 0058383,0.00072267,0.00069282,0.00040946,0.34552912,-0.00039266,-0.000
 20589,-0.00003967,-0.00002086,0.00017822,0.00007188,-0.00004669,-0.000
 00078,-0.00002384,-0.00000033,0.00001979,-0.00000358,0.00002798,-0.000
 07271,-0.00003951,0.00013724,-0.00009065,0.00001839,0.00008524,-0.0000
 8267,0.00002575,0.00001953,0.00003672,-0.00001868,-0.00001638,-0.00000
 416,0.00001889,0.00008224,-0.00010580,-0.00002286,-0.00017598,0.000077
 02,-0.00005422,0.00006131,-0.00012059,0.00005173,0.00001759,0.00003253
 ,-0.00001179,-0.00000518,0.00000266,-0.00001136,-0.00001026,-0.0000065
 4,-0.00000716,0.00007925,-0.00001461,-0.00002183,-0.00002446,0.0000063
 8,-0.00000964,-0.00000703,0.00000113,-0.00000683,0.00000014,0.00000128
 ,-0.00002547,-0.00001688,0.00000486,0.,0.00001155,0.00000566,0.0000029
 2,-0.00002656,0.00000309,-0.00000650,0.00000526,0.00002991,0.00000708,
 -0.00003620,0.00001233,-0.00000509,-0.00000871,0.00001920,0.00000229,0
 .00000452,0.00003919,0.00002463,-0.00037824,-0.00058635,0.00041333,-0.
 00102720,0.00060423,-0.00031208,-0.00744039,0.00493460,0.00806778,-0.0
 0010046,-0.00004805,-0.00013177,-0.00021275,-0.00022975,0.00008838,0.0
 0163462,-0.01657944,-0.00317695,0.00061227,0.00045802,0.00014338,0.000
 72234,0.00079784,-0.00136646,0.00251614,-0.00127095,0.00124576,0.00008
 431,0.00009681,0.00007205,0.07184978,0.65834151,0.00053734,0.00039201,
 0.00033893,0.00014655,-0.00018376,-0.00003938,-0.00002487,0.00007897,0
 .00006822,0.00006027,-0.00007578,0.00000946,0.00005514,0.00016640,0.00
 012788,-0.00016933,-0.00014551,-0.00023020,-0.00006581,0.00000094,0.00
 004274,-0.00005079,-0.00003353,-0.00001843,-0.00002786,-0.00002168,-0.
 00003600,-0.00015030,0.00003178,0.00004108,0.00050580,0.00031412,0.000
 44404,0.00012637,0.00001400,-0.00034917,-0.00002786,0.00002379,-0.0000
 3322,0.00002906,0.00002727,0.00000067,0.00002614,0.00001669,-0.0000003
 8,-0.00016895,-0.00005712,0.00004875,0.00006536,0.00004870,0.00001631,
 0.00001693,0.00000774,0.00002167,0.00000451,-0.00002942,0.00004565,0.0
 0002658,0.00001129,0.00001949,-0.00002289,0.00002567,0.00004735,0.0000
 6961,0.00001933,0.00002356,-0.00003800,-0.00000587,-0.00004261,0.00001
 895,0.00001876,0.00008966,0.00005523,-0.00008591,-0.00003980,0.0000037
 5,0.00010655,-0.00004992,-0.00007103,0.00358743,-0.00031765,0.00357484
 ,-0.00003706,0.00104744,0.01811348,0.01079855,-0.01643360,0.00008068,-
 0.00000435,0.00020266,0.00004392,0.00014857,0.00000761,-0.00675852,-0.
 00454511,-0.00532202,-0.00123735,-0.00095591,-0.00081430,0.00240494,-0
 .00635771,0.00063145,-0.00622628,0.00240286,-0.00269237,-0.00093160,-0
 .00105926,-0.00092441,-0.20698546,0.18327255,0.22730383,0.00000011,0.0
 0001385,-0.00008545,0.00002830,-0.00004780,0.00000025,-0.00001981,-0.0
 0000757,-0.00001293,-0.00000914,-0.00001529,-0.00001756,-0.00000521,0.
 00001953,0.00000011,-0.00003398,0.00003140,0.00000390,-0.00002235,-0.0
 0004920,0.00000745,0.00000265,0.00000103,0.00000365,0.00000615,0.00000
 021,0.00000189,-0.00003922,0.00004084,-0.00000596,0.00007058,-0.000012
 08,-0.00006063,-0.00007806,0.00003764,0.00007308,0.00000331,-0.0000036
 9,0.00000979,-0.00000066,-0.00000489,0.00000522,-0.00000330,-0.0000070
 4,0.00000514,0.00000174,0.00000294,0.00002697,0.00000350,0.00000359,0.
 00000357,0.00000599,0.00000344,-0.00000470,-0.00000427,0.,0.00000037,0
 .00000766,0.00000116,-0.00000605,-0.00000401,-0.00000369,-0.00000448,0
 .00000494,-0.00000030,0.00000394,-0.00000095,0.00000265,0.00000458,0.0
 0004126,0.00000134,-0.00002424,-0.00003849,0.00003684,-0.00000204,-0.0
 0001530,-0.00008221,0.00000159,-0.00021848,-0.00013170,-0.00016046,-0.
 00009920,-0.00006380,-0.00013032,-0.00009877,-0.00106006,0.00071083,0.
 00010496,0.00001100,-0.00001357,0.00001676,0.00001946,0.00001354,-0.00
 074872,0.00263362,-0.00141363,0.00013632,0.00005247,0.00016054,-0.0000
 9736,0.00019892,0.00043555,0.00024685,0.00011215,0.00005387,-0.0000115
 7,0.00003971,0.00009327,-0.17279460,0.17775260,0.17875767,0.16366493,0
 .00012379,0.00002436,-0.00006631,-0.00006737,-0.00005175,-0.00005392,0
 .00005988,-0.00003544,-0.00000289,-0.00002113,0.00002582,0.00000728,-0
 .00003359,-0.00001792,-0.00000915,-0.00003421,0.00011837,0.00006712,-0
 .00003721,0.00009064,-0.00003878,0.00000080,-0.00002050,0.00001928,0.0
 0001282,0.00000951,-0.00000479,0.00000622,0.00002334,0.00000412,-0.000
 06121,-0.00014510,-0.00005912,-0.00004330,0.00005905,0.00002447,-0.000
 00610,-0.00004175,0.00002206,-0.00000669,-0.00000947,0.00000554,0.0000
 0288,0.00000073,0.00000421,0.00000587,0.00002602,-0.00002072,-0.000002
 38,-0.00002177,0.00000104,-0.00000309,-0.00000275,0.00000095,0.0000013
 0,0.00000786,0.00000517,0.00000106,-0.00000825,-0.00000248,0.00000189,
 -0.00001063,-0.00001094,-0.00000405,-0.00000410,-0.00000204,0.00000744
 ,-0.00001745,0.00000431,0.00000018,-0.00001114,-0.00000760,0.00001798,
 -0.00001878,0.00000524,0.00000438,-0.00000118,-0.00000329,0.00035341,-
 0.00075072,-0.00017697,-0.00051133,-0.00019567,-0.00005631,-0.00247250
 ,-0.00306755,0.00369633,0.00001227,0.00002050,0.00003060,0.00003403,0.
 00002422,-0.00003244,0.00333567,0.00522378,-0.00502589,-0.00010211,-0.
 00000950,0.00015234,-0.00076001,0.00164872,0.00006518,0.00065022,-0.00
 009551,0.00010723,0.00020959,0.00024807,0.00015150,0.13348103,-0.24145
 444,-0.16897939,-0.15950771,0.26150751,-0.00022410,-0.00013039,-0.0000
 9359,-0.00001963,0.00007956,0.00003183,-0.00001038,-0.00001113,-0.0000
 2826,-0.00001519,0.00001392,-0.00000630,-0.00001761,-0.00002505,-0.000
 03166,0.00007641,-0.00003426,0.00002636,0.00002046,-0.00003273,0.00000
 596,0.00001039,0.00001163,0.00000027,0.00000623,0.00000107,0.00000757,
 0.00001797,0.00001146,-0.00000980,-0.00005990,-0.00003199,-0.00008852,
 -0.00003406,0.00001135,0.00007303,0.00001281,0.00000222,0.00001545,-0.
 00001110,-0.00001119,0.00000262,-0.00001072,-0.00000435,0.00000286,0.0
 0002844,-0.00000395,0.00000101,-0.00001474,-0.00000249,-0.00000415,-0.
 00000103,-0.00000115,-0.00000499,-0.00000278,0.00000307,-0.00001035,-0
 .00000371,0.00000036,-0.00000437,0.00000195,-0.00000350,-0.00000885,-0
 .00001239,-0.00000520,-0.00000364,0.00000522,0.00000340,0.00000749,-0.
 00000644,-0.00000655,-0.00001438,-0.00001217,0.00002571,0.00001350,-0.
 00000112,-0.00003372,0.00002623,-0.00054692,-0.00021052,0.00008563,-0.
 00033106,-0.00006219,-0.00009342,0.00041168,0.00179180,-0.00154261,0.0
 0002712,0.00004371,-0.00005585,0.00001286,-0.00000205,0.00000290,0.000
 40127,-0.00448789,0.00048052,0.00045624,0.00033589,0.00021846,0.000778
 32,-0.00024725,-0.00050632,0.00055751,0.00004331,-0.00003305,0.0001603
 4,0.00012309,0.00012434,0.16026766,-0.19538452,-0.17824890,-0.16435943
 ,0.19448889,0.17918539,-0.00002683,0.00001080,-0.00002224,0.00001028,0
 .00000261,0.00001590,-0.00001662,0.00000213,-0.00001022,-0.00000141,-0
 .00000971,-0.00000819,0.00001808,0.00000340,0.00000414,-0.00000091,-0.
 00001423,-0.00001410,-0.00000041,-0.00006370,0.00002244,0.00000424,0.0
 0000588,-0.00000451,-0.00000666,-0.00000096,0.00000307,-0.00002990,-0.
 00001370,-0.00000145,0.00007676,0.00008022,0.00000730,-0.00000902,-0.0
 0004689,0.00001710,-0.00000010,0.00000058,0.00000271,-0.00000146,-0.00
 000027,0.00000223,-0.00000138,-0.00000498,0.00000010,0.00000849,-0.000
 01638,0.00001524,0.00000574,0.00001284,0.00000195,0.00000502,0.0000057
 7,-0.00000250,-0.00000415,-0.00000346,-0.00000058,0.00000559,0.0000045
 7,-0.00000101,-0.00000423,0.00000176,0.00000616,0.00000646,0.00000663,
 0.00000405,-0.00000612,0.00001443,0.00000069,0.00001462,0.00001552,-0.
 00000499,-0.00002557,0.00001927,-0.00000996,-0.00000011,-0.00001316,0.
 00000352,-0.00010444,0.00004345,-0.00009450,0.00008011,0.00029861,-0.0
 0010232,-0.00042314,0.00019785,0.00130011,0.00005488,0.00001763,0.0000
 0660,-0.00010220,-0.00007465,0.00009674,-0.00071099,-0.00146308,-0.002
 68787,0.00005086,0.00003534,0.00002998,0.00005100,-0.00011530,0.000212
 65,0.00031257,-0.00035667,0.00002031,-0.00014635,-0.00011889,-0.000065
 82,-0.16335674,-0.24575671,0.01823377,0.00999746,0.02535126,0.00244158
 ,0.15427661,0.00014899,0.00008016,0.00002446,0.00000884,-0.00005539,-0
 .00001717,0.00001779,0.00000313,0.00000582,0.00000074,-0.00000906,0.00
 000085,-0.00000736,0.00003101,0.00001413,-0.00003984,0.00003038,-0.000
 01626,-0.00003055,0.00001452,-0.00000571,-0.00000661,-0.00001128,0.000
 00483,0.00000675,0.00000133,-0.00000596,-0.00004305,0.00005443,0.00000
 956,0.00009407,-0.00001851,0.00002137,-0.00002328,0.00003432,-0.000010
 35,-0.00000761,-0.00001042,0.00000372,0.00000095,-0.00000132,0.0000052
 9,0.00000341,0.00000167,0.00000362,-0.00003300,-0.00000690,0.00001580,
 0.00001028,0.00000107,0.00000459,0.00000406,-0.00000016,0.00000194,0.,
 -0.00000181,0.00000975,0.00000871,-0.00000024,-0.00000080,-0.00000633,
 -0.00000135,-0.00000162,0.00001268,-0.00000125,0.00000374,-0.00000474,
 -0.00001011,-0.00000174,0.00001823,0.00000160,-0.00000200,-0.00001328,
 0.00000525,-0.00000298,0.00000071,-0.00002693,-0.00000480,0.00015408,0
 .00037845,-0.00010451,0.00042646,-0.00019094,0.00002805,0.00164486,0.0
 0051090,-0.00188186,-0.00001254,-0.00000081,0.00006191,0.00007467,0.00
 010841,-0.00001625,-0.00284229,-0.00142476,0.00329361,-0.00024655,-0.0
 0017610,-0.00009888,0.00003074,-0.00050074,0.00021186,-0.00090087,0.00
 040111,0.00001476,-0.00007660,-0.00006835,-0.00004302,-0.20029534,-0.4
 0482959,-0.01893660,-0.02001938,-0.02306711,0.00374164,0.22194220,0.42
 875538,-0.00004559,-0.00002344,-0.00004128,-0.00000424,0.00000939,0.00
 001077,-0.00000309,-0.00000236,-0.00000652,-0.00000303,0.00000237,-0.0
 0000223,-0.00000296,-0.00000377,-0.00001256,0.00001395,-0.00000424,0.0
 0000686,0.00000457,-0.00001794,0.00000306,0.00000758,0.00000482,0.0000
 0159,0.00000491,0.00000557,0.00000775,0.00000119,0.00000659,0.00000067
 ,-0.00002477,-0.00001032,-0.00005437,-0.00001751,-0.00001896,0.0000470
 8,0.00000303,0.00000021,0.00000412,-0.00000248,-0.00000305,0.00000196,
 -0.00000332,-0.00000224,0.00000201,0.00000210,-0.00000109,0.00000769,-
 0.00000465,-0.00000189,-0.00000234,0.00000024,-0.00000007,-0.00000261,
 -0.00000342,0.00000373,-0.00000309,-0.00000011,-0.00000013,-0.00000270
 ,-0.00000148,-0.00000434,-0.00000573,-0.00000575,-0.00000360,-0.000003
 72,0.00000357,0.00000322,0.00000726,-0.00000098,0.00000132,-0.00001093
 ,-0.00001276,0.00001798,0.00000796,0.00000147,-0.00001681,0.00000500,-
 0.00017506,-0.00006217,-0.00012053,-0.00005794,-0.00011745,-0.00010550
 ,0.00221100,-0.00014157,-0.00420853,0.00006877,0.00007162,0.00000406,0
 .00008236,0.00004583,0.00002981,-0.00125418,0.00362124,0.00683685,0.00
 011094,0.00008155,0.00007590,0.00005889,-0.00012060,0.00016846,-0.0000
 4229,0.00012106,-0.00019463,0.00008731,0.00004714,0.00008638,0.0324971
 4,0.00715302,-0.02498612,-0.01407531,-0.02430983,0.00047758,-0.0194180
 8,0.01366922,0.02197057\\0.00000056,-0.00000391,0.00000446,-0.00000070
 ,0.00000068,-0.00000223,0.00000124,0.00000109,0.00000011,0.00000007,-0
 .00000037,-0.00000074,-0.00000136,0.00000185,-0.00000006,0.00000388,0.
 00000117,0.00000117,0.00000350,0.00000050,-0.00000023,-0.00000352,-0.0
 0000068,0.00000107,-0.00000174,-0.00000096,-0.00000086,0.00000591,0.00
 000509,0.00000240,0.00000248,-0.00000369,-0.00000542,0.00000037,0.0000
 0002,0.00000111,-0.00000082,-0.00000060,0.00000215,-0.00000049,-0.0000
 0051,0.00000133,0.00000009,-0.00000054,0.00000058,-0.00000092,0.000001
 14,0.00000039,-0.00000126,0.00000023,0.00000159,0.00000010,0.00000061,
 0.00000052,0.00000028,0.00000098,-0.00000091,0.00000039,0.00000053,0.0
 0000060,0.00000055,0.00000074,0.00000014,-0.00000130,-0.00000110,0.000
 00040,-0.00000091,-0.00000036,-0.00000183,0.00000030,-0.00000065,-0.00
 000027,-0.00000085,-0.00000024,0.00000045,-0.00000017,-0.00000015,0.00
 000061,0.00000053,0.00000559,0.00000565,0.00000440,-0.00000119,-0.0000
 0152,-0.00000190,-0.00001049,0.00000564,0.00000011,-0.00000126,-0.0000
 0089,0.00000209,0.00000253,0.00000186,-0.00000368,-0.00000233,0.000000
 19,-0.00000305,0.00000066,-0.00000484,0.00000499,0.00000213,-0.0000055
 0,0.00000318,0.00000763,-0.00000204,-0.00001214,-0.00000715,-0.0000031
 6,-0.00000072,0.00000617,-0.00000062,-0.00000022,-0.00000237,0.0000020
 5,0.00000073,-0.00000077,-0.00000335\\\@


 WE THE UNWILLING
 LED BY THE UNQUALIFIED
 HAVE BEEN DOING THE UNBELIEVABLE SO LONG WITH SO LITTLE
 THAT WE NOW ATTEMPT THE IMPOSSIBLE WITH NOTHING.

                                    -- ANONYMOUS
 Job cpu time:       1 days  7 hours 32 minutes 26.8 seconds.
 Elapsed time:       0 days  1 hours  7 minutes 39.6 seconds.
 File lengths (MBytes):  RWF=   1240 Int=      0 D2E=      0 Chk=     32 Scr=      8
 Normal termination of Gaussian 16 at Thu Feb 23 17:56:25 2023.
