 Entering Gaussian System, Link 0=g16
 Input=Nic5h3bLMidBInter.gjf
 Output=Nic5h3bLMidBInter.log
 Initial command:
 /sw/contrib/gaussian/g16/A03/g16/l1.exe "/gscratch/scrubbed/gds001/Gau-20796.inp" -scrdir="/gscratch/scrubbed/gds001/"
 Entering Link 1 = /sw/contrib/gaussian/g16/A03/g16/l1.exe PID=     20797.
  
 Copyright (c) 1988,1990,1992,1993,1995,1998,2003,2009,2016,
            Gaussian, Inc.  All Rights Reserved.
  
 This is part of the Gaussian(R) 16 program.  It is based on
 the Gaussian(R) 09 system (copyright 2009, Gaussian, Inc.),
 the Gaussian(R) 03 system (copyright 2003, Gaussian, Inc.),
 the Gaussian(R) 98 system (copyright 1998, Gaussian, Inc.),
 the Gaussian(R) 94 system (copyright 1995, Gaussian, Inc.),
 the Gaussian 92(TM) system (copyright 1992, Gaussian, Inc.),
 the Gaussian 90(TM) system (copyright 1990, Gaussian, Inc.),
 the Gaussian 88(TM) system (copyright 1988, Gaussian, Inc.),
 the Gaussian 86(TM) system (copyright 1986, Carnegie Mellon
 University), and the Gaussian 82(TM) system (copyright 1983,
 Carnegie Mellon University). Gaussian is a federally registered
 trademark of Gaussian, Inc.
  
 This software contains proprietary and confidential information,
 including trade secrets, belonging to Gaussian, Inc.
  
 This software is provided under written license and may be
 used, copied, transmitted, or stored only in accord with that
 written license.
  
 The following legend is applicable only to US Government
 contracts under FAR:
  
                    RESTRICTED RIGHTS LEGEND
  
 Use, reproduction and disclosure by the US Government is
 subject to restrictions as set forth in subparagraphs (a)
 and (c) of the Commercial Computer Software - Restricted
 Rights clause in FAR 52.227-19.
  
 Gaussian, Inc.
 340 Quinnipiac St., Bldg. 40, Wallingford CT 06492
  
  
 ---------------------------------------------------------------
 Warning -- This program may not be used in any manner that
 competes with the business of Gaussian, Inc. or will provide
 assistance to any competitor of Gaussian, Inc.  The licensee
 of this program is prohibited from giving any competitor of
 Gaussian, Inc. access to this program.  By using this program,
 the user acknowledges that Gaussian, Inc. is engaged in the
 business of creating and licensing software in the field of
 computational chemistry and represents and warrants to the
 licensee that it is not a competitor of Gaussian, Inc. and that
 it will not use this program in any manner prohibited above.
 ---------------------------------------------------------------
  

 Cite this work as:
 Gaussian 16, Revision A.03,
 M. J. Frisch, G. W. Trucks, H. B. Schlegel, G. E. Scuseria, 
 M. A. Robb, J. R. Cheeseman, G. Scalmani, V. Barone, 
 G. A. Petersson, H. Nakatsuji, X. Li, M. Caricato, A. V. Marenich, 
 J. Bloino, B. G. Janesko, R. Gomperts, B. Mennucci, H. P. Hratchian, 
 J. V. Ortiz, A. F. Izmaylov, J. L. Sonnenberg, D. Williams-Young, 
 F. Ding, F. Lipparini, F. Egidi, J. Goings, B. Peng, A. Petrone, 
 T. Henderson, D. Ranasinghe, V. G. Zakrzewski, J. Gao, N. Rega, 
 G. Zheng, W. Liang, M. Hada, M. Ehara, K. Toyota, R. Fukuda, 
 J. Hasegawa, M. Ishida, T. Nakajima, Y. Honda, O. Kitao, H. Nakai, 
 T. Vreven, K. Throssell, J. A. Montgomery, Jr., J. E. Peralta, 
 F. Ogliaro, M. J. Bearpark, J. J. Heyd, E. N. Brothers, K. N. Kudin, 
 V. N. Staroverov, T. A. Keith, R. Kobayashi, J. Normand, 
 K. Raghavachari, A. P. Rendell, J. C. Burant, S. S. Iyengar, 
 J. Tomasi, M. Cossi, J. M. Millam, M. Klene, C. Adamo, R. Cammi, 
 J. W. Ochterski, R. L. Martin, K. Morokuma, O. Farkas, 
 J. B. Foresman, and D. J. Fox, Gaussian, Inc., Wallingford CT, 2016.
 
 ******************************************
 Gaussian 16:  ES64L-G16RevA.03 25-Dec-2016
                17-May-2023 
 ******************************************
 %nprocshared=28
 Will use up to   28 processors via shared memory.
 %mem=41GB
 -----------------------------------------
 # wB97XD/aug-cc-pVDZ opt=(MaxStep=1) freq
 -----------------------------------------
 1/8=1,18=20,19=15,26=3,38=1/1,3;
 2/9=110,12=2,17=6,18=5,40=1/2;
 3/5=16,7=10,11=2,25=1,30=1,71=1,74=-58/1,2,3;
 4//1;
 5/5=2,38=5/2;
 6/7=2,8=2,9=2,10=2,28=1/1;
 7//1,2,3,16;
 1/8=1,18=20,19=15,26=3/3(2);
 2/9=110/2;
 99//99;
 2/9=110/2;
 3/5=16,7=10,11=2,25=1,30=1,71=1,74=-58/1,2,3;
 4/5=5,16=3,69=1/1;
 5/5=2,38=5/2;
 7//1,2,3,16;
 1/8=1,18=20,19=15,26=3/3(-5);
 2/9=110/2;
 6/7=2,8=2,9=2,10=2,19=2,28=1/1;
 99/9=1/99;
 ----
 blah
 ----
 Symbolic Z-matrix:
 Charge =  1 Multiplicity = 1
 N                     1.54523  -1.33539   0.65525 
 C                     1.90783  -0.50477  -0.51202 
 C                     1.35588  -1.30569  -1.70669 
 C                     1.31794  -2.77166  -1.21159 
 C                     1.86541  -2.70405   0.21757 
 C                     1.41106   0.91456  -0.39149 
 C                     0.05153   1.1848   -0.24806 
 N                    -0.45581   2.41103  -0.11152 
 C                     0.38442   3.45284  -0.13166 
 C                     1.75707   3.29662  -0.28284 
 C                     2.27446   2.00907  -0.40631 
 O                    -3.03245   2.00178   0.3665 
 O                    -1.03934  -1.6034    1.35889 
 H                     1.41442  -3.43642   0.89832 
 H                     1.91747  -3.44067  -1.83679 
 H                     0.29024  -3.15176  -1.21037 
 H                     1.99181  -1.16843  -2.58728 
 H                     0.35314  -0.95338  -1.97542 
 H                     2.9593   -2.85729   0.2304 
 H                     3.01144  -0.47193  -0.58383 
 H                    -0.67124   0.36828  -0.24199 
 H                    -0.06145   4.44129  -0.02228 
 H                     2.40756   4.16892  -0.296 
 H                     3.34916   1.8571   -0.51322 
 C                     2.24479  -0.94605   1.87666 
 H                    -2.09287   2.32011   0.18551 
 H                    -0.08244  -1.43722   1.06797 
 H                    -1.01741  -2.12171   2.16642 
 H                    -3.12875   0.60826   0.6842 
 H                    -3.46341   2.64232   0.93805 
 O                    -3.20142  -0.42415   0.84099 
 H                    -3.67312  -0.86722   0.08524 
 H                    -2.30554  -0.87761   1.04271 
 H                     1.97115  -1.62865   2.69037 
 H                     1.95487   0.0711    2.1655 
 H                     3.34046  -0.98244   1.74681 
 O                    -4.43762  -1.5961   -1.15688 
 H                    -4.73023  -1.11092  -1.9341 
 H                    -5.09614  -2.28028  -1.00382 
 O                    -5.42817  -0.30369  -3.32783 
 H                    -6.33775   0.41001  -3.3307 
 H                    -5.08413  -0.41572  -4.38988 
 
 Add virtual bond connecting atoms H41        and O40        Dist= 2.18D+00.
 Add virtual bond connecting atoms H29        and O12        Dist= 2.71D+00.
 Add virtual bond connecting atoms H33        and O13        Dist= 2.82D+00.
 Add virtual bond connecting atoms O37        and H32        Dist= 3.08D+00.
 Add virtual bond connecting atoms H26        and N8         Dist= 3.15D+00.
 Add virtual bond connecting atoms H27        and N1         Dist= 3.18D+00.
 Add virtual bond connecting atoms O40        and H38        Dist= 3.32D+00.

 GradGradGradGradGradGradGradGradGradGradGradGradGradGradGradGradGradGrad
 Berny optimization.
 Initialization pass.
                           ----------------------------
                           !    Initial Parameters    !
                           ! (Angstroms and Degrees)  !
 --------------------------                            --------------------------
 ! Name  Definition              Value          Derivative Info.                !
 --------------------------------------------------------------------------------
 ! R1    R(1,2)                  1.4778         estimate D2E/DX2                !
 ! R2    R(1,5)                  1.4722         estimate D2E/DX2                !
 ! R3    R(1,25)                 1.4604         estimate D2E/DX2                !
 ! R4    R(1,27)                 1.6823         estimate D2E/DX2                !
 ! R5    R(2,3)                  1.5406         estimate D2E/DX2                !
 ! R6    R(2,6)                  1.5086         estimate D2E/DX2                !
 ! R7    R(2,20)                 1.1064         estimate D2E/DX2                !
 ! R8    R(3,4)                  1.5478         estimate D2E/DX2                !
 ! R9    R(3,17)                 1.0948         estimate D2E/DX2                !
 ! R10   R(3,18)                 1.0963         estimate D2E/DX2                !
 ! R11   R(4,5)                  1.5319         estimate D2E/DX2                !
 ! R12   R(4,15)                 1.0945         estimate D2E/DX2                !
 ! R13   R(4,16)                 1.0957         estimate D2E/DX2                !
 ! R14   R(5,14)                 1.0969         estimate D2E/DX2                !
 ! R15   R(5,19)                 1.1047         estimate D2E/DX2                !
 ! R16   R(6,7)                  1.3935         estimate D2E/DX2                !
 ! R17   R(6,11)                 1.3941         estimate D2E/DX2                !
 ! R18   R(7,8)                  1.334          estimate D2E/DX2                !
 ! R19   R(7,21)                 1.0905         estimate D2E/DX2                !
 ! R20   R(8,9)                  1.3386         estimate D2E/DX2                !
 ! R21   R(8,26)                 1.6663         estimate D2E/DX2                !
 ! R22   R(9,10)                 1.3898         estimate D2E/DX2                !
 ! R23   R(9,22)                 1.0899         estimate D2E/DX2                !
 ! R24   R(10,11)                1.3931         estimate D2E/DX2                !
 ! R25   R(10,23)                1.0882         estimate D2E/DX2                !
 ! R26   R(11,24)                1.0906         estimate D2E/DX2                !
 ! R27   R(12,26)                1.0084         estimate D2E/DX2                !
 ! R28   R(12,29)                1.4325         estimate D2E/DX2                !
 ! R29   R(12,30)                0.9606         estimate D2E/DX2                !
 ! R30   R(13,27)                1.0139         estimate D2E/DX2                !
 ! R31   R(13,28)                0.9598         estimate D2E/DX2                !
 ! R32   R(13,33)                1.4933         estimate D2E/DX2                !
 ! R33   R(25,34)                1.0968         estimate D2E/DX2                !
 ! R34   R(25,35)                1.0964         estimate D2E/DX2                !
 ! R35   R(25,36)                1.1039         estimate D2E/DX2                !
 ! R36   R(29,31)                1.0468         estimate D2E/DX2                !
 ! R37   R(31,32)                0.995          estimate D2E/DX2                !
 ! R38   R(31,33)                1.0242         estimate D2E/DX2                !
 ! R39   R(32,37)                1.6305         estimate D2E/DX2                !
 ! R40   R(37,38)                0.9618         estimate D2E/DX2                !
 ! R41   R(37,39)                0.9619         estimate D2E/DX2                !
 ! R42   R(38,40)                1.7553         estimate D2E/DX2                !
 ! R43   R(40,41)                1.1562         estimate D2E/DX2                !
 ! R44   R(40,42)                1.122          estimate D2E/DX2                !
 ! A1    A(2,1,5)              103.5533         estimate D2E/DX2                !
 ! A2    A(2,1,25)             113.1555         estimate D2E/DX2                !
 ! A3    A(2,1,27)             117.7231         estimate D2E/DX2                !
 ! A4    A(5,1,25)             113.0986         estimate D2E/DX2                !
 ! A5    A(5,1,27)             103.1256         estimate D2E/DX2                !
 ! A6    A(25,1,27)            105.9277         estimate D2E/DX2                !
 ! A7    A(1,2,3)              103.4389         estimate D2E/DX2                !
 ! A8    A(1,2,6)              112.6377         estimate D2E/DX2                !
 ! A9    A(1,2,20)             108.2207         estimate D2E/DX2                !
 ! A10   A(3,2,6)              115.665          estimate D2E/DX2                !
 ! A11   A(3,2,20)             108.8119         estimate D2E/DX2                !
 ! A12   A(6,2,20)             107.8014         estimate D2E/DX2                !
 ! A13   A(2,3,4)              104.6625         estimate D2E/DX2                !
 ! A14   A(2,3,17)             110.5141         estimate D2E/DX2                !
 ! A15   A(2,3,18)             110.5314         estimate D2E/DX2                !
 ! A16   A(4,3,17)             112.9704         estimate D2E/DX2                !
 ! A17   A(4,3,18)             111.1232         estimate D2E/DX2                !
 ! A18   A(17,3,18)            107.0879         estimate D2E/DX2                !
 ! A19   A(3,4,5)              104.351          estimate D2E/DX2                !
 ! A20   A(3,4,15)             112.507          estimate D2E/DX2                !
 ! A21   A(3,4,16)             110.6033         estimate D2E/DX2                !
 ! A22   A(5,4,15)             111.3543         estimate D2E/DX2                !
 ! A23   A(5,4,16)             110.4538         estimate D2E/DX2                !
 ! A24   A(15,4,16)            107.5991         estimate D2E/DX2                !
 ! A25   A(1,5,4)              103.926          estimate D2E/DX2                !
 ! A26   A(1,5,14)             110.2918         estimate D2E/DX2                !
 ! A27   A(1,5,19)             109.9306         estimate D2E/DX2                !
 ! A28   A(4,5,14)             113.7401         estimate D2E/DX2                !
 ! A29   A(4,5,19)             111.0141         estimate D2E/DX2                !
 ! A30   A(14,5,19)            107.8976         estimate D2E/DX2                !
 ! A31   A(2,6,7)              120.7931         estimate D2E/DX2                !
 ! A32   A(2,6,11)             122.2657         estimate D2E/DX2                !
 ! A33   A(7,6,11)             116.9392         estimate D2E/DX2                !
 ! A34   A(6,7,8)              124.0428         estimate D2E/DX2                !
 ! A35   A(6,7,21)             120.1319         estimate D2E/DX2                !
 ! A36   A(8,7,21)             115.8253         estimate D2E/DX2                !
 ! A37   A(7,8,9)              118.3688         estimate D2E/DX2                !
 ! A38   A(7,8,26)             109.9824         estimate D2E/DX2                !
 ! A39   A(9,8,26)             131.441          estimate D2E/DX2                !
 ! A40   A(8,9,10)             122.2847         estimate D2E/DX2                !
 ! A41   A(8,9,22)             116.5884         estimate D2E/DX2                !
 ! A42   A(10,9,22)            121.1269         estimate D2E/DX2                !
 ! A43   A(9,10,11)            118.7086         estimate D2E/DX2                !
 ! A44   A(9,10,23)            120.1067         estimate D2E/DX2                !
 ! A45   A(11,10,23)           121.1832         estimate D2E/DX2                !
 ! A46   A(6,11,10)            119.6465         estimate D2E/DX2                !
 ! A47   A(6,11,24)            120.1264         estimate D2E/DX2                !
 ! A48   A(10,11,24)           120.2271         estimate D2E/DX2                !
 ! A49   A(26,12,29)           114.175          estimate D2E/DX2                !
 ! A50   A(26,12,30)           108.3197         estimate D2E/DX2                !
 ! A51   A(29,12,30)           119.1144         estimate D2E/DX2                !
 ! A52   A(27,13,28)           107.9606         estimate D2E/DX2                !
 ! A53   A(27,13,33)           131.2892         estimate D2E/DX2                !
 ! A54   A(28,13,33)           117.385          estimate D2E/DX2                !
 ! A55   A(1,25,34)            109.5758         estimate D2E/DX2                !
 ! A56   A(1,25,35)            109.9368         estimate D2E/DX2                !
 ! A57   A(1,25,36)            111.6086         estimate D2E/DX2                !
 ! A58   A(34,25,35)           108.4187         estimate D2E/DX2                !
 ! A59   A(34,25,36)           108.3236         estimate D2E/DX2                !
 ! A60   A(35,25,36)           108.9063         estimate D2E/DX2                !
 ! A61   A(8,26,12)            164.7139         estimate D2E/DX2                !
 ! A62   A(29,31,32)           110.998          estimate D2E/DX2                !
 ! A63   A(29,31,33)           113.9203         estimate D2E/DX2                !
 ! A64   A(32,31,33)           111.5396         estimate D2E/DX2                !
 ! A65   A(32,37,38)           122.19           estimate D2E/DX2                !
 ! A66   A(32,37,39)           121.1818         estimate D2E/DX2                !
 ! A67   A(38,37,39)           106.2076         estimate D2E/DX2                !
 ! A68   A(38,40,41)           126.7736         estimate D2E/DX2                !
 ! A69   A(38,40,42)           125.714          estimate D2E/DX2                !
 ! A70   A(41,40,42)           107.4891         estimate D2E/DX2                !
 ! A71   L(1,27,13,7,-1)       186.5285         estimate D2E/DX2                !
 ! A72   L(12,29,31,1,-1)      179.7847         estimate D2E/DX2                !
 ! A73   L(31,32,37,3,-1)      179.6647         estimate D2E/DX2                !
 ! A74   L(13,33,31,7,-1)      182.9877         estimate D2E/DX2                !
 ! A75   L(37,38,40,8,-1)      185.3415         estimate D2E/DX2                !
 ! A76   L(1,27,13,7,-2)       179.7968         estimate D2E/DX2                !
 ! A77   L(12,29,31,1,-2)      184.4147         estimate D2E/DX2                !
 ! A78   L(31,32,37,3,-2)      179.945          estimate D2E/DX2                !
 ! A79   L(13,33,31,7,-2)      179.4379         estimate D2E/DX2                !
 ! A80   L(37,38,40,8,-2)      182.769          estimate D2E/DX2                !
 ! D1    D(5,1,2,3)             43.0972         estimate D2E/DX2                !
 ! D2    D(5,1,2,6)            168.6972         estimate D2E/DX2                !
 ! D3    D(5,1,2,20)           -72.2245         estimate D2E/DX2                !
 ! D4    D(25,1,2,3)           165.9177         estimate D2E/DX2                !
 ! D5    D(25,1,2,6)           -68.4822         estimate D2E/DX2                !
 ! D6    D(25,1,2,20)           50.596          estimate D2E/DX2                !
 ! D7    D(27,1,2,3)           -69.8928         estimate D2E/DX2                !
 ! D8    D(27,1,2,6)            55.7073         estimate D2E/DX2                !
 ! D9    D(27,1,2,20)          174.7855         estimate D2E/DX2                !
 ! D10   D(2,1,5,4)            -43.8215         estimate D2E/DX2                !
 ! D11   D(2,1,5,14)          -166.0913         estimate D2E/DX2                !
 ! D12   D(2,1,5,19)            75.0536         estimate D2E/DX2                !
 ! D13   D(25,1,5,4)          -166.6797         estimate D2E/DX2                !
 ! D14   D(25,1,5,14)           71.0506         estimate D2E/DX2                !
 ! D15   D(25,1,5,19)          -47.8045         estimate D2E/DX2                !
 ! D16   D(27,1,5,4)            79.3791         estimate D2E/DX2                !
 ! D17   D(27,1,5,14)          -42.8906         estimate D2E/DX2                !
 ! D18   D(27,1,5,19)         -161.7457         estimate D2E/DX2                !
 ! D19   D(2,1,13,28)         -175.8906         estimate D2E/DX2                !
 ! D20   D(2,1,13,33)          -16.2138         estimate D2E/DX2                !
 ! D21   D(5,1,13,28)           71.2169         estimate D2E/DX2                !
 ! D22   D(5,1,13,33)         -129.1062         estimate D2E/DX2                !
 ! D23   D(25,1,13,28)         -46.8197         estimate D2E/DX2                !
 ! D24   D(25,1,13,33)         112.8572         estimate D2E/DX2                !
 ! D25   D(2,1,25,34)         -177.2111         estimate D2E/DX2                !
 ! D26   D(2,1,25,35)           63.7301         estimate D2E/DX2                !
 ! D27   D(2,1,25,36)          -57.2277         estimate D2E/DX2                !
 ! D28   D(5,1,25,34)          -59.8558         estimate D2E/DX2                !
 ! D29   D(5,1,25,35)         -178.9146         estimate D2E/DX2                !
 ! D30   D(5,1,25,36)           60.1276         estimate D2E/DX2                !
 ! D31   D(27,1,25,34)          52.382          estimate D2E/DX2                !
 ! D32   D(27,1,25,35)         -66.6767         estimate D2E/DX2                !
 ! D33   D(27,1,25,36)         172.3655         estimate D2E/DX2                !
 ! D34   D(1,2,3,4)            -25.4188         estimate D2E/DX2                !
 ! D35   D(1,2,3,17)          -147.3301         estimate D2E/DX2                !
 ! D36   D(1,2,3,18)            94.3012         estimate D2E/DX2                !
 ! D37   D(6,2,3,4)           -149.0521         estimate D2E/DX2                !
 ! D38   D(6,2,3,17)            89.0366         estimate D2E/DX2                !
 ! D39   D(6,2,3,18)           -29.3321         estimate D2E/DX2                !
 ! D40   D(20,2,3,4)            89.4804         estimate D2E/DX2                !
 ! D41   D(20,2,3,17)          -32.4309         estimate D2E/DX2                !
 ! D42   D(20,2,3,18)         -150.7995         estimate D2E/DX2                !
 ! D43   D(1,2,6,7)            -58.9683         estimate D2E/DX2                !
 ! D44   D(1,2,6,11)           120.5023         estimate D2E/DX2                !
 ! D45   D(3,2,6,7)             59.7016         estimate D2E/DX2                !
 ! D46   D(3,2,6,11)          -120.8279         estimate D2E/DX2                !
 ! D47   D(20,2,6,7)          -178.2905         estimate D2E/DX2                !
 ! D48   D(20,2,6,11)            1.1801         estimate D2E/DX2                !
 ! D49   D(2,3,4,5)             -0.6926         estimate D2E/DX2                !
 ! D50   D(2,3,4,15)          -121.5473         estimate D2E/DX2                !
 ! D51   D(2,3,4,16)           118.0933         estimate D2E/DX2                !
 ! D52   D(17,3,4,5)           119.5946         estimate D2E/DX2                !
 ! D53   D(17,3,4,15)           -1.2601         estimate D2E/DX2                !
 ! D54   D(17,3,4,16)         -121.6194         estimate D2E/DX2                !
 ! D55   D(18,3,4,5)          -120.0151         estimate D2E/DX2                !
 ! D56   D(18,3,4,15)          119.1302         estimate D2E/DX2                !
 ! D57   D(18,3,4,16)           -1.2291         estimate D2E/DX2                !
 ! D58   D(3,4,5,1)             26.7395         estimate D2E/DX2                !
 ! D59   D(3,4,5,14)           146.6988         estimate D2E/DX2                !
 ! D60   D(3,4,5,19)           -91.3908         estimate D2E/DX2                !
 ! D61   D(15,4,5,1)           148.3594         estimate D2E/DX2                !
 ! D62   D(15,4,5,14)          -91.6813         estimate D2E/DX2                !
 ! D63   D(15,4,5,19)           30.2292         estimate D2E/DX2                !
 ! D64   D(16,4,5,1)           -92.1481         estimate D2E/DX2                !
 ! D65   D(16,4,5,14)           27.8112         estimate D2E/DX2                !
 ! D66   D(16,4,5,19)          149.7216         estimate D2E/DX2                !
 ! D67   D(2,6,7,8)            178.7136         estimate D2E/DX2                !
 ! D68   D(2,6,7,21)            -1.2473         estimate D2E/DX2                !
 ! D69   D(11,6,7,8)            -0.7842         estimate D2E/DX2                !
 ! D70   D(11,6,7,21)          179.2548         estimate D2E/DX2                !
 ! D71   D(2,6,11,10)         -179.6068         estimate D2E/DX2                !
 ! D72   D(2,6,11,24)            0.344          estimate D2E/DX2                !
 ! D73   D(7,6,11,10)           -0.1169         estimate D2E/DX2                !
 ! D74   D(7,6,11,24)          179.8339         estimate D2E/DX2                !
 ! D75   D(6,7,8,9)              0.9987         estimate D2E/DX2                !
 ! D76   D(6,7,8,26)          -174.3571         estimate D2E/DX2                !
 ! D77   D(21,7,8,9)          -179.0388         estimate D2E/DX2                !
 ! D78   D(21,7,8,26)            5.6054         estimate D2E/DX2                !
 ! D79   D(7,8,9,10)            -0.3047         estimate D2E/DX2                !
 ! D80   D(7,8,9,22)           179.7298         estimate D2E/DX2                !
 ! D81   D(26,8,9,10)          173.8693         estimate D2E/DX2                !
 ! D82   D(26,8,9,22)           -6.0962         estimate D2E/DX2                !
 ! D83   D(7,8,26,12)            4.2303         estimate D2E/DX2                !
 ! D84   D(9,8,26,12)         -170.3162         estimate D2E/DX2                !
 ! D85   D(8,9,10,11)           -0.5458         estimate D2E/DX2                !
 ! D86   D(8,9,10,23)          179.8944         estimate D2E/DX2                !
 ! D87   D(22,9,10,11)         179.4182         estimate D2E/DX2                !
 ! D88   D(22,9,10,23)          -0.1416         estimate D2E/DX2                !
 ! D89   D(9,10,11,6)            0.7391         estimate D2E/DX2                !
 ! D90   D(9,10,11,24)        -179.2117         estimate D2E/DX2                !
 ! D91   D(23,10,11,6)        -179.7061         estimate D2E/DX2                !
 ! D92   D(23,10,11,24)          0.3432         estimate D2E/DX2                !
 ! D93   D(29,12,26,8)          10.6434         estimate D2E/DX2                !
 ! D94   D(30,12,26,8)         145.9133         estimate D2E/DX2                !
 ! D95   D(26,12,31,32)       -111.3377         estimate D2E/DX2                !
 ! D96   D(26,12,31,33)         14.0924         estimate D2E/DX2                !
 ! D97   D(30,12,31,32)        117.1615         estimate D2E/DX2                !
 ! D98   D(30,12,31,33)       -117.4084         estimate D2E/DX2                !
 ! D99   D(27,13,31,29)        -32.2018         estimate D2E/DX2                !
 ! D100  D(27,13,31,32)         95.2327         estimate D2E/DX2                !
 ! D101  D(28,13,31,29)        125.0983         estimate D2E/DX2                !
 ! D102  D(28,13,31,32)       -107.4671         estimate D2E/DX2                !
 ! D103  D(29,31,37,38)          2.8549         estimate D2E/DX2                !
 ! D104  D(29,31,37,39)       -137.3295         estimate D2E/DX2                !
 ! D105  D(33,31,37,38)       -125.2273         estimate D2E/DX2                !
 ! D106  D(33,31,37,39)         94.5883         estimate D2E/DX2                !
 ! D107  D(32,37,40,41)        -69.3172         estimate D2E/DX2                !
 ! D108  D(32,37,40,42)        115.3557         estimate D2E/DX2                !
 ! D109  D(39,37,40,41)         73.5078         estimate D2E/DX2                !
 ! D110  D(39,37,40,42)       -101.8193         estimate D2E/DX2                !
 --------------------------------------------------------------------------------
 Trust Radius=1.00D-02 FncErr=1.00D-07 GrdErr=1.00D-06 EigMax=2.50D+02 EigMin=1.00D-04
 Number of steps in this run=    244 maximum allowed number of steps=    252.
 GradGradGradGradGradGradGradGradGradGradGradGradGradGradGradGradGradGrad

                          Input orientation:                          
 ---------------------------------------------------------------------
 Center     Atomic      Atomic             Coordinates (Angstroms)
 Number     Number       Type             X           Y           Z
 ---------------------------------------------------------------------
      1          7           0        1.545232   -1.335387    0.655254
      2          6           0        1.907826   -0.504767   -0.512021
      3          6           0        1.355879   -1.305687   -1.706694
      4          6           0        1.317944   -2.771662   -1.211585
      5          6           0        1.865405   -2.704050    0.217574
      6          6           0        1.411057    0.914559   -0.391488
      7          6           0        0.051527    1.184800   -0.248058
      8          7           0       -0.455814    2.411026   -0.111518
      9          6           0        0.384416    3.452844   -0.131659
     10          6           0        1.757069    3.296623   -0.282839
     11          6           0        2.274459    2.009066   -0.406305
     12          8           0       -3.032447    2.001781    0.366497
     13          8           0       -1.039342   -1.603399    1.358886
     14          1           0        1.414424   -3.436415    0.898322
     15          1           0        1.917472   -3.440673   -1.836787
     16          1           0        0.290240   -3.151764   -1.210368
     17          1           0        1.991810   -1.168432   -2.587276
     18          1           0        0.353139   -0.953378   -1.975423
     19          1           0        2.959304   -2.857290    0.230398
     20          1           0        3.011444   -0.471927   -0.583830
     21          1           0       -0.671236    0.368277   -0.241990
     22          1           0       -0.061447    4.441286   -0.022277
     23          1           0        2.407564    4.168923   -0.295995
     24          1           0        3.349164    1.857102   -0.513220
     25          6           0        2.244793   -0.946053    1.876659
     26          1           0       -2.092868    2.320114    0.185509
     27          1           0       -0.082439   -1.437217    1.067972
     28          1           0       -1.017412   -2.121708    2.166424
     29          1           0       -3.128750    0.608263    0.684199
     30          1           0       -3.463410    2.642316    0.938048
     31          8           0       -3.201417   -0.424150    0.840988
     32          1           0       -3.673123   -0.867217    0.085237
     33          1           0       -2.305538   -0.877614    1.042710
     34          1           0        1.971148   -1.628653    2.690365
     35          1           0        1.954867    0.071103    2.165497
     36          1           0        3.340458   -0.982439    1.746805
     37          8           0       -4.437623   -1.596103   -1.156879
     38          1           0       -4.730232   -1.110923   -1.934101
     39          1           0       -5.096139   -2.280282   -1.003821
     40          8           0       -5.428172   -0.303694   -3.327834
     41          1           0       -6.337747    0.410010   -3.330699
     42          1           0       -5.084134   -0.415723   -4.389884
 ---------------------------------------------------------------------
                    Distance matrix (angstroms):
                    1          2          3          4          5
     1  N    0.000000
     2  C    1.477814   0.000000
     3  C    2.369712   1.540572   0.000000
     4  C    2.366354   2.444619   1.547790   0.000000
     5  C    1.472180   2.317532   2.432662   1.531920   0.000000
     6  C    2.485142   1.508573   2.581144   3.777493   3.697529
     7  C    3.065692   2.523917   3.167251   4.264480   4.316262
     8  N    4.315986   3.774791   4.431791   5.587184   5.626754
     9  C    4.989377   4.257715   5.105692   6.386093   6.342132
    10  C    4.730794   3.811275   4.834209   6.154631   6.022477
    11  C    3.583859   2.542627   3.677280   4.941534   4.771793
    12  O    5.672320   5.608999   5.873233   6.648459   6.793819
    13  O    2.692016   3.659656   3.901730   3.678173   3.309317
    14  H    2.119083   3.290452   3.365938   2.214252   1.096887
    15  H    3.283452   3.220969   2.211442   1.094480   2.183054
    16  H    2.890463   3.179759   2.188590   1.095744   2.172697
    17  H    3.277393   2.180410   1.094839   2.217424   3.200201
    18  H    2.913328   2.181708   1.096278   2.195553   3.187638
    19  H    2.120446   2.681633   2.954787   2.186483   1.104655
    20  H    2.104916   1.106439   2.167227   2.924175   2.634013
    21  H    2.936026   2.736180   3.009437   3.841376   4.010603
    22  H    6.034104   5.346151   6.154167   7.439341   7.404466
    23  H    5.652072   4.705293   5.750432   7.085005   6.913425
    24  H    3.848570   2.766926   3.924385   5.102845   4.851774
    25  C    1.460410   2.452361   3.709437   3.705287   2.446845
    26  H    5.178718   4.946924   5.349834   6.285833   6.396185
    27  H    1.682266   2.706842   3.128071   2.989682   2.474296
    28  H    3.077187   4.283174   4.615132   4.157797   3.528140
    29  H    5.062087   5.294986   5.430605   5.898388   6.010885
    30  H    6.402233   6.391949   6.768082   7.536141   7.582808
    31  O    4.836892   5.285972   5.294973   5.490764   5.590999
    32  H    5.270231   5.624507   5.356691   5.497218   5.836674
    33  H    3.897192   4.506511   4.598744   4.668928   4.627471
    34  H    2.099782   3.394467   4.451628   4.118053   2.698584
    35  H    2.104008   2.739150   4.153095   4.460007   3.391737
    36  H    2.130468   2.717149   3.996211   4.005490   2.734643
    37  O    6.256705   6.470825   5.826775   5.874647   6.545596
    38  H    6.792392   6.815684   6.093471   6.313519   7.118299
    39  H    6.910367   7.242227   6.562957   6.436232   7.080571
    40  O    8.096774   7.860413   7.046661   7.488622   8.457416
    41  H    9.004198   8.761920   8.048161   8.557061   9.464635
    42  H    8.381390   7.995827   7.033158   7.525864   8.646456
                    6          7          8          9         10
     6  C    0.000000
     7  C    1.393529   0.000000
     8  N    2.408943   1.334042   0.000000
     9  C    2.750344   2.295297   1.338573   0.000000
    10  C    2.409514   2.714752   2.389662   1.389761   0.000000
    11  C    1.394141   2.376107   2.775403   2.394199   1.393104
    12  O    4.636952   3.249005   2.652361   3.745490   5.003770
    13  O    3.925351   3.397987   4.314881   5.460257   5.875831
    14  H    4.538127   4.952505   6.221747   7.041567   6.844439
    15  H    4.616643   5.234578   6.546100   7.264867   6.916042
    16  H    4.296717   4.448462   5.719152   6.692782   6.677843
    17  H    3.081819   3.843740   4.993272   5.474483   5.030134
    18  H    2.667814   2.765242   3.930364   4.776530   4.785224
    19  H    4.124398   5.002257   6.287694   6.824875   6.291218
    20  H    2.126165   3.408606   4.533914   4.744424   3.983217
    21  H    2.157943   1.090474   2.058216   3.262074   3.804411
    22  H    3.839582   3.266258   2.070132   1.089851   2.164520
    23  H    3.404854   3.802394   3.364991   2.152418   1.088221
    24  H    2.158579   3.375901   3.866013   3.388468   2.158718
    25  C    3.049833   3.723624   4.745114   5.181181   4.785562
    26  H    3.819162   2.464822   1.666264   2.742373   3.999367
    27  H    3.145060   2.936810   4.042225   5.056655   5.255257
    28  H    4.653955   4.231471   5.103929   6.190471   6.561627
    29  H    4.675550   3.363876   3.320799   4.593430   5.659829
    30  H    5.339779   3.985722   3.193856   4.075168   5.401119
    31  O    4.958433   3.788982   4.060028   5.369853   6.300295
    32  H    5.408408   4.265545   4.597463   5.930733   6.852739
    33  H    4.368282   3.387534   3.945741   5.231430   5.973785
    34  H    4.034780   4.498310   5.482673   6.025210   5.757093
    35  H    2.746875   3.269292   4.058500   4.379431   4.054313
    36  H    3.448693   4.415141   5.420392   5.651420   4.993691
    37  O    6.410640   5.358343   5.744969   7.056557   7.942098
    38  H    6.648132   5.565816   5.830659   7.087763   8.014874
    39  H    7.274996   6.251115   6.658618   7.979090   8.864995
    40  O    7.541971   6.459701   6.514502   7.623207   8.594298
    41  H    8.302861   7.136231   6.997451   8.042398   9.118554
    42  H    7.742372   6.789066   6.907697   7.937464   8.800647
                   11         12         13         14         15
    11  C    0.000000
    12  O    5.362884   0.000000
    13  O    5.210286   4.237290   0.000000
    14  H    5.665243   7.044961   3.097262   0.000000
    15  H    5.645651   7.679614   4.725532   2.780988   0.000000
    16  H    5.587290   6.331333   3.281202   2.406531   1.767414
    17  H    3.864326   6.634620   4.994925   4.198394   2.394126
    18  H    3.863894   5.067519   3.671396   3.943375   2.941597
    19  H    4.955383   7.715580   4.339919   1.779933   2.387259
    20  H    2.594222   6.599316   4.632844   3.679054   3.402959
    21  H    3.375842   2.934946   2.566284   4.486198   4.873693
    22  H    3.394058   3.863829   6.277110   8.067458   8.326695
    23  H    2.166764   5.893142   6.923835   7.762338   7.779472
    24  H    1.090649   6.443585   5.893966   5.810077   5.645174
    25  C    3.734372   6.230536   3.389061   2.801528   4.485527
    26  H    4.418205   1.008415   4.228556   6.778409   7.304736
    27  H    4.427790   4.584901   1.013859   2.503232   4.055996
    28  H    5.875257   4.929834   0.959814   3.041441   5.136040
    29  H    5.687365   1.432516   3.116453   6.086518   6.943602
    30  H    5.927177   0.960565   4.907067   7.793960   8.582328
    31  O    6.120580   2.477667   2.516628   5.512079   6.517125
    32  H    6.624828   2.953087   3.016778   5.757171   6.447605
    33  H    5.604368   3.045747   1.493313   4.517347   5.717918
    34  H    4.786895   6.604270   3.291888   2.605641   4.876618
    35  H    3.236048   5.642448   3.524183   3.768354   5.324683
    36  H    3.836840   7.171104   4.440577   3.232882   4.572738
    37  O    7.655890   4.152103   4.228172   6.469703   6.652214
    38  H    7.818835   4.226600   4.970811   7.154532   7.044798
    39  H    8.548757   4.946985   4.743222   6.880568   7.157589
    40  O    8.556560   4.970191   6.551061   8.631075   8.125413
    41  H    9.234671   5.208455   7.356570   9.632017   9.230827
    42  H    8.711911   5.716372   7.128764   8.906231   8.043079
                   16         17         18         19         20
    16  H    0.000000
    17  H    2.953781   0.000000
    18  H    2.328555   1.762344   0.000000
    19  H    3.047363   3.424554   3.909300   0.000000
    20  H    3.870275   2.353416   3.038900   2.521040   0.000000
    21  H    3.775299   3.866996   2.408507   4.879370   3.792747
    22  H    7.693481   6.501078   5.752309   7.903037   5.822170
    23  H    7.675389   5.823245   5.768805   7.067473   4.688817
    24  H    5.910310   3.911262   4.360390   4.788575   2.354446
    25  C    4.267924   4.476625   4.291497   2.621741   2.620411
    26  H    6.129366   6.045071   4.622589   7.234084   5.868678
    27  H    2.875655   4.211365   3.112247   3.459818   3.637629
    28  H    3.764797   5.706296   4.516448   4.483698   5.149500
    29  H    5.423715   6.330824   4.651437   7.020000   6.362129
    30  H    7.230280   7.530547   5.998614   8.485145   7.344274
    31  O    4.882582   6.267101   4.565865   6.651877   6.374326
    32  H    4.754576   6.270927   4.523774   6.926078   6.729587
    33  H    4.121430   5.632812   4.022863   5.683092   5.574990
    34  H    4.512321   5.297709   4.984328   2.921890   3.624994
    35  H    4.955232   4.911890   4.556568   3.650889   2.995002
    36  H    4.770186   4.542874   4.772829   2.441277   2.408471
    37  O    4.977513   6.600496   4.902500   7.630836   7.555181
    38  H    5.467537   6.753947   5.085980   8.177030   7.884484
    39  H    5.460332   7.347283   5.692040   8.169847   8.317418
    40  O    6.730186   7.506819   5.972827   9.462115   8.876090
    41  H    7.817432   8.510328   6.961577  10.478159   9.784195
    42  H    6.817561   7.340637   5.973494   9.591932   8.945814
                   21         22         23         24         25
    21  H    0.000000
    22  H    4.124260   0.000000
    23  H    4.891507   2.499024   0.000000
    24  H    4.295787   4.307122   2.505656   0.000000
    25  C    3.836582   6.160205   5.559667   3.845625   0.000000
    26  H    2.452236   2.944353   4.889154   5.506207   5.687103
    27  H    2.307052   5.978786   6.284053   5.012844   2.512215
    28  H    3.481425   6.984066   7.574035   6.486787   3.479671
    29  H    2.637194   4.959790   6.655062   6.704982   5.719513
    30  H    3.789456   3.966342   6.190454   7.009558   6.807420
    31  O    2.864018   5.854665   7.338237   7.067397   5.568321
    32  H    3.262644   6.421524   7.904606   7.555963   6.183618
    33  H    2.423560   5.870336   7.033704   6.471108   4.626626
    34  H    4.423644   6.952268   6.536107   4.930758   1.096787
    35  H    3.575014   5.286812   4.801667   3.508473   1.096399
    36  H    4.676904   6.642244   5.619595   3.629157   1.103933
    37  O    4.345283   7.542434   8.990730   8.542422   7.367469
    38  H    4.639690   7.501976   9.028195   8.723802   7.949846
    39  H    5.212966   8.455237   9.919618   9.417100   7.997913
    40  O    5.709853   7.889441   9.518146   9.467456   9.293749
    41  H    6.453775   8.160195   9.990962  10.191590  10.129930
    42  H    6.106828   8.239776   9.690431   9.555876   9.657328
                   26         27         28         29         30
    26  H    0.000000
    27  H    4.351793   0.000000
    28  H    4.981005   1.596653   0.000000
    29  H    2.062081   3.689347   3.755993   0.000000
    30  H    1.596407   5.300041   5.494337   2.076971   0.000000
    31  O    3.031422   3.287225   3.067305   1.046776   3.079168
    32  H    3.558980   3.766123   3.599707   1.682896   3.617746
    33  H    3.317452   2.292589   2.114183   1.736099   3.706957
    34  H    6.195425   2.624124   3.073940   5.919244   7.130653
    35  H    5.036126   2.762283   3.693625   5.322213   6.121723
    36  H    6.547177   3.519071   4.523831   6.746119   7.751487
    37  O    4.757798   4.893142   4.797754   3.156255   4.827215
    38  H    4.818760   5.542643   5.623257   3.517931   4.892942
    39  H    5.621191   5.490016   5.168328   3.881201   5.537927
    40  O    5.509283   7.013191   7.276459   4.713323   5.544097
    41  H    5.833628   7.866984   8.058159   5.143576   5.609564
    42  H    6.112831   7.473192   7.901505   5.533389   6.353362
                   31         32         33         34         35
    31  O    0.000000
    32  H    0.994975   0.000000
    33  H    1.024168   1.669476   0.000000
    34  H    5.623740   6.262928   4.644230   0.000000
    35  H    5.346669   6.073072   4.506858   1.779023   0.000000
    36  H    6.627844   7.208634   5.690695   1.784071   1.790284
    37  O    2.625481   1.630517   3.146459   7.474938   7.394707
    38  H    3.241921   2.292291   3.846424   8.158568   7.930601
    39  H    3.230869   2.282055   3.734062   8.001136   8.080240
    40  O    4.727793   3.879022   5.402026   9.629339   9.210126
    41  H    5.285391   4.516652   6.086328  10.461697   9.954420
    42  H    5.559381   4.713969   6.119397  10.068671   9.631072
                   36         37         38         39         40
    36  H    0.000000
    37  O    8.325053   0.000000
    38  H    8.871393   0.961818   0.000000
    39  H    8.968083   0.961858   1.538411   0.000000
    40  O   10.153892   2.713771   1.755343   3.068906   0.000000
    41  H   11.017605   3.515744   2.616835   3.767442   1.156161
    42  H   10.438097   3.501942   2.576707   3.865507   1.121991
                   41         42
    41  H    0.000000
    42  H    1.837186   0.000000
 Stoichiometry    C10H25N2O5(1+)
 Framework group  C1[X(C10H25N2O5)]
 Deg. of freedom   120
 Full point group                 C1      NOp   1
 Largest Abelian subgroup         C1      NOp   1
 Largest concise Abelian subgroup C1      NOp   1
                         Standard orientation:                         
 ---------------------------------------------------------------------
 Center     Atomic      Atomic             Coordinates (Angstroms)
 Number     Number       Type             X           Y           Z
 ---------------------------------------------------------------------
      1          7           0       -2.056352   -1.372097   -0.450138
      2          6           0       -2.163316   -0.563218    0.782017
      3          6           0       -1.326670   -1.355788    1.804376
      4          6           0       -1.361241   -2.815655    1.291297
      5          6           0       -2.226221   -2.753911    0.028452
      6          6           0       -1.749839    0.872297    0.571953
      7          6           0       -0.468917    1.187300    0.122579
      8          7           0       -0.043187    2.430293   -0.108483
      9          6           0       -0.886207    3.444345    0.121283
     10          6           0       -2.181448    3.242814    0.582990
     11          6           0       -2.618172    1.938308    0.802707
     12          8           0        2.363844    2.108089   -1.174974
     13          8           0        0.302056   -1.551031   -1.735769
     14          1           0       -1.923639   -3.465756   -0.749288
     15          1           0       -1.779941   -3.508733    2.027653
     16          1           0       -0.350984   -3.162482    1.046866
     17          1           0       -1.745384   -1.246320    2.810044
     18          1           0       -0.299762   -0.973636    1.839643
     19          1           0       -3.288423   -2.942145    0.266271
     20          1           0       -3.220858   -0.566485    1.107290
     21          1           0        0.256510    0.394524   -0.062883
     22          1           0       -0.506990    4.447485   -0.072834
     23          1           0       -2.836599    4.093602    0.759517
     24          1           0       -3.634045    1.750979    1.152598
     25          6           0       -3.030631   -0.995413   -1.470769
     26          1           0        1.482686    2.394534   -0.776964
     27          1           0       -0.566046   -1.418117   -1.229169
     28          1           0        0.109143   -2.063105   -2.524317
     29          1           0        2.424945    0.721055   -1.527827
     30          1           0        2.631876    2.766843   -1.820642
     31          8           0        2.489676   -0.307159   -1.713097
     32          1           0        3.136235   -0.741038   -1.093674
     33          1           0        1.585157   -0.787526   -1.709423
     34          1           0       -2.932717   -1.662129   -2.336127
     35          1           0       -2.845411    0.032888   -1.803006
     36          1           0       -4.064976   -1.068091   -1.091934
     37          8           0        4.188432   -1.455168   -0.073142
     38          1           0        4.638521   -0.967250    0.622882
     39          1           0        4.813489   -2.116528   -0.384716
     40          8           0        5.615926   -0.149503    1.830027
     41          1           0        6.480112    0.593040    1.633756
     42          1           0        5.530365   -0.281288    2.940961
 ---------------------------------------------------------------------
 Rotational constants (GHZ):           0.3954730           0.2444052           0.1900124
 Standard basis: Aug-CC-pVDZ (5D, 7F)
 There are   650 symmetry adapted cartesian basis functions of A   symmetry.
 There are   616 symmetry adapted basis functions of A   symmetry.
   616 basis functions,  1006 primitive gaussians,   650 cartesian basis functions
    69 alpha electrons       69 beta electrons
       nuclear repulsion energy      1348.1541044462 Hartrees.
 NAtoms=   42 NActive=   42 NUniq=   42 SFac= 1.00D+00 NAtFMM=   60 NAOKFM=F Big=F
 Integral buffers will be    131072 words long.
 Raffenetti 2 integral format.
 Two-electron integral symmetry is turned on.
 Nuclear repulsion after empirical dispersion term =     1348.1232597548 Hartrees.
 One-electron integrals computed using PRISM.
 NBasis=   616 RedAO= T EigKep=  1.79D-06  NBF=   616
 NBsUse=   616 1.00D-06 EigRej= -1.00D+00 NBFU=   616
 ExpMin= 2.97D-02 ExpMax= 1.17D+04 ExpMxC= 4.01D+02 IAcc=3 IRadAn=         5 AccDes= 0.00D+00
 Harris functional with IExCor= 4639 and IRadAn=       5 diagonalized for initial guess.
 HarFok:  IExCor= 4639 AccDes= 0.00D+00 IRadAn=         5 IDoV= 1 UseB2=F ITyADJ=14
 ICtDFT=  3500011 ScaDFX=  1.000000  1.000000  1.000000  1.000000
 FoFCou: FMM=F IPFlag=           0 FMFlag=      100000 FMFlg1=           0
         NFxFlg=           0 DoJE=T BraDBF=F KetDBF=T FulRan=T
         wScrn=  0.000000 ICntrl=       500 IOpCl=  0 I1Cent=   200000004 NGrid=           0
         NMat0=    1 NMatS0=      1 NMatT0=    0 NMatD0=    1 NMtDS0=    0 NMtDT0=    0
 Petite list used in FoFCou.
 Requested convergence on RMS density matrix=1.00D-08 within 128 cycles.
 Requested convergence on MAX density matrix=1.00D-06.
 Requested convergence on             energy=1.00D-06.
 No special actions if energy rises.
 SCF Done:  E(RwB97XD) =  -881.415237362     A.U. after   15 cycles
            NFock= 15  Conv=0.35D-08     -V/T= 2.0066

 **********************************************************************

            Population analysis using the SCF density.

 **********************************************************************

 Orbital symmetries:
       Occupied  (A) (A) (A) (A) (A) (A) (A) (A) (A) (A) (A) (A)
                 (A) (A) (A) (A) (A) (A) (A) (A) (A) (A) (A) (A)
                 (A) (A) (A) (A) (A) (A) (A) (A) (A) (A) (A) (A)
                 (A) (A) (A) (A) (A) (A) (A) (A) (A) (A) (A) (A)
                 (A) (A) (A) (A) (A) (A) (A) (A) (A) (A) (A) (A)
                 (A) (A) (A) (A) (A) (A) (A) (A) (A)
       Virtual   (A) (A) (A) (A) (A) (A) (A) (A) (A) (A) (A) (A)
                 (A) (A) (A) (A) (A) (A) (A) (A) (A) (A) (A) (A)
                 (A) (A) (A) (A) (A) (A) (A) (A) (A) (A) (A) (A)
                 (A) (A) (A) (A) (A) (A) (A) (A) (A) (A) (A) (A)
                 (A) (A) (A) (A) (A) (A) (A) (A) (A) (A) (A) (A)
                 (A) (A) (A) (A) (A) (A) (A) (A) (A) (A) (A) (A)
                 (A) (A) (A) (A) (A) (A) (A) (A) (A) (A) (A) (A)
                 (A) (A) (A) (A) (A) (A) (A) (A) (A) (A) (A) (A)
                 (A) (A) (A) (A) (A) (A) (A) (A) (A) (A) (A) (A)
                 (A) (A) (A) (A) (A) (A) (A) (A) (A) (A) (A) (A)
                 (A) (A) (A) (A) (A) (A) (A) (A) (A) (A) (A) (A)
                 (A) (A) (A) (A) (A) (A) (A) (A) (A) (A) (A) (A)
                 (A) (A) (A) (A) (A) (A) (A) (A) (A) (A) (A) (A)
                 (A) (A) (A) (A) (A) (A) (A) (A) (A) (A) (A) (A)
                 (A) (A) (A) (A) (A) (A) (A) (A) (A) (A) (A) (A)
                 (A) (A) (A) (A) (A) (A) (A) (A) (A) (A) (A) (A)
                 (A) (A) (A) (A) (A) (A) (A) (A) (A) (A) (A) (A)
                 (A) (A) (A) (A) (A) (A) (A) (A) (A) (A) (A) (A)
                 (A) (A) (A) (A) (A) (A) (A) (A) (A) (A) (A) (A)
                 (A) (A) (A) (A) (A) (A) (A) (A) (A) (A) (A) (A)
                 (A) (A) (A) (A) (A) (A) (A) (A) (A) (A) (A) (A)
                 (A) (A) (A) (A) (A) (A) (A) (A) (A) (A) (A) (A)
                 (A) (A) (A) (A) (A) (A) (A) (A) (A) (A) (A) (A)
                 (A) (A) (A) (A) (A) (A) (A) (A) (A) (A) (A) (A)
                 (A) (A) (A) (A) (A) (A) (A) (A) (A) (A) (A) (A)
                 (A) (A) (A) (A) (A) (A) (A) (A) (A) (A) (A) (A)
                 (A) (A) (A) (A) (A) (A) (A) (A) (A) (A) (A) (A)
                 (A) (A) (A) (A) (A) (A) (A) (A) (A) (A) (A) (A)
                 (A) (A) (A) (A) (A) (A) (A) (A) (A) (A) (A) (A)
                 (A) (A) (A) (A) (A) (A) (A) (A) (A) (A) (A) (A)
                 (A) (A) (A) (A) (A) (A) (A) (A) (A) (A) (A) (A)
                 (A) (A) (A) (A) (A) (A) (A) (A) (A) (A) (A) (A)
                 (A) (A) (A) (A) (A) (A) (A) (A) (A) (A) (A) (A)
                 (A) (A) (A) (A) (A) (A) (A) (A) (A) (A) (A) (A)
                 (A) (A) (A) (A) (A) (A) (A) (A) (A) (A) (A) (A)
                 (A) (A) (A) (A) (A) (A) (A) (A) (A) (A) (A) (A)
                 (A) (A) (A) (A) (A) (A) (A) (A) (A) (A) (A) (A)
                 (A) (A) (A) (A) (A) (A) (A) (A) (A) (A) (A) (A)
                 (A) (A) (A) (A) (A) (A) (A) (A) (A) (A) (A) (A)
                 (A) (A) (A) (A) (A) (A) (A) (A) (A) (A) (A) (A)
                 (A) (A) (A) (A) (A) (A) (A) (A) (A) (A) (A) (A)
                 (A) (A) (A) (A) (A) (A) (A) (A) (A) (A) (A) (A)
                 (A) (A) (A) (A) (A) (A) (A) (A) (A) (A) (A) (A)
                 (A) (A) (A) (A) (A) (A) (A) (A) (A) (A) (A) (A)
                 (A) (A) (A) (A) (A) (A) (A) (A) (A) (A) (A) (A)
                 (A) (A) (A) (A) (A) (A) (A)
 The electronic state is 1-A.
 Alpha  occ. eigenvalues --  -19.43704 -19.41806 -19.39498 -19.39353 -19.38963
 Alpha  occ. eigenvalues --  -14.58167 -14.57639 -10.45561 -10.45328 -10.44709
 Alpha  occ. eigenvalues --  -10.43447 -10.43201 -10.42777 -10.42594 -10.42380
 Alpha  occ. eigenvalues --  -10.40287 -10.39735  -1.29871  -1.23899  -1.23704
 Alpha  occ. eigenvalues --   -1.23166  -1.17880  -1.17736  -1.16414  -1.03596
 Alpha  occ. eigenvalues --   -1.00124  -0.99050  -0.93276  -0.88609  -0.85254
 Alpha  occ. eigenvalues --   -0.84192  -0.79905  -0.79186  -0.78902  -0.78641
 Alpha  occ. eigenvalues --   -0.76133  -0.74512  -0.74412  -0.72290  -0.70487
 Alpha  occ. eigenvalues --   -0.69473  -0.68558  -0.68231  -0.65473  -0.64906
 Alpha  occ. eigenvalues --   -0.64442  -0.63429  -0.61845  -0.61617  -0.60959
 Alpha  occ. eigenvalues --   -0.60826  -0.59240  -0.59078  -0.58262  -0.57852
 Alpha  occ. eigenvalues --   -0.57383  -0.56009  -0.54841  -0.54004  -0.53636
 Alpha  occ. eigenvalues --   -0.53347  -0.53054  -0.52619  -0.51533  -0.51255
 Alpha  occ. eigenvalues --   -0.48498  -0.47902  -0.45276  -0.44232
 Alpha virt. eigenvalues --   -0.08441  -0.07455  -0.07093  -0.05483  -0.04488
 Alpha virt. eigenvalues --   -0.04158  -0.03490  -0.02986  -0.02826  -0.02161
 Alpha virt. eigenvalues --   -0.01931  -0.01294  -0.01105  -0.00913  -0.00344
 Alpha virt. eigenvalues --   -0.00042   0.00103   0.00586   0.01143   0.01755
 Alpha virt. eigenvalues --    0.02006   0.02220   0.02481   0.02631   0.02860
 Alpha virt. eigenvalues --    0.03180   0.03621   0.03805   0.04472   0.04748
 Alpha virt. eigenvalues --    0.05067   0.05760   0.05917   0.06028   0.06463
 Alpha virt. eigenvalues --    0.06779   0.06958   0.07005   0.07228   0.07261
 Alpha virt. eigenvalues --    0.07602   0.07815   0.08051   0.08299   0.08528
 Alpha virt. eigenvalues --    0.08727   0.09139   0.09370   0.09410   0.09857
 Alpha virt. eigenvalues --    0.10305   0.10486   0.10587   0.10996   0.11615
 Alpha virt. eigenvalues --    0.11736   0.11874   0.12247   0.12654   0.12763
 Alpha virt. eigenvalues --    0.12992   0.13685   0.13807   0.14047   0.14395
 Alpha virt. eigenvalues --    0.14510   0.14899   0.14968   0.15749   0.15802
 Alpha virt. eigenvalues --    0.16286   0.16392   0.16538   0.17073   0.17412
 Alpha virt. eigenvalues --    0.17521   0.17802   0.17837   0.18455   0.18638
 Alpha virt. eigenvalues --    0.18906   0.19170   0.19362   0.19663   0.19713
 Alpha virt. eigenvalues --    0.20037   0.20283   0.20519   0.20749   0.21433
 Alpha virt. eigenvalues --    0.21452   0.21768   0.21997   0.22248   0.22419
 Alpha virt. eigenvalues --    0.22777   0.23350   0.23559   0.23863   0.24163
 Alpha virt. eigenvalues --    0.24373   0.25012   0.25390   0.26010   0.26263
 Alpha virt. eigenvalues --    0.26402   0.26616   0.26899   0.27231   0.27689
 Alpha virt. eigenvalues --    0.27938   0.28011   0.28167   0.28686   0.29236
 Alpha virt. eigenvalues --    0.29330   0.29895   0.30025   0.30545   0.30560
 Alpha virt. eigenvalues --    0.30953   0.31444   0.31657   0.32110   0.32402
 Alpha virt. eigenvalues --    0.33034   0.33373   0.33719   0.34187   0.34384
 Alpha virt. eigenvalues --    0.34615   0.35252   0.35404   0.35797   0.35829
 Alpha virt. eigenvalues --    0.36384   0.36997   0.37342   0.38087   0.38355
 Alpha virt. eigenvalues --    0.38734   0.39202   0.39243   0.39588   0.40193
 Alpha virt. eigenvalues --    0.40443   0.40959   0.41221   0.41273   0.41504
 Alpha virt. eigenvalues --    0.41759   0.42146   0.42533   0.42913   0.43326
 Alpha virt. eigenvalues --    0.43799   0.44190   0.44387   0.44721   0.45366
 Alpha virt. eigenvalues --    0.45442   0.45892   0.46170   0.46978   0.47177
 Alpha virt. eigenvalues --    0.47369   0.47842   0.48024   0.48236   0.48939
 Alpha virt. eigenvalues --    0.49315   0.49518   0.49724   0.49815   0.50166
 Alpha virt. eigenvalues --    0.50910   0.51072   0.51728   0.51902   0.52065
 Alpha virt. eigenvalues --    0.52592   0.52678   0.53103   0.53706   0.53947
 Alpha virt. eigenvalues --    0.54287   0.54907   0.54953   0.55368   0.55900
 Alpha virt. eigenvalues --    0.56099   0.56653   0.57167   0.57466   0.57883
 Alpha virt. eigenvalues --    0.58299   0.58581   0.58931   0.59372   0.59981
 Alpha virt. eigenvalues --    0.60686   0.60768   0.61433   0.61772   0.62161
 Alpha virt. eigenvalues --    0.62778   0.63131   0.63531   0.64012   0.64732
 Alpha virt. eigenvalues --    0.64781   0.65264   0.65662   0.66209   0.66440
 Alpha virt. eigenvalues --    0.67108   0.67536   0.68198   0.68585   0.68723
 Alpha virt. eigenvalues --    0.69368   0.69744   0.70772   0.70943   0.71012
 Alpha virt. eigenvalues --    0.71247   0.71556   0.72083   0.72643   0.73188
 Alpha virt. eigenvalues --    0.73630   0.74023   0.74103   0.74722   0.75199
 Alpha virt. eigenvalues --    0.75473   0.76310   0.76547   0.76984   0.77628
 Alpha virt. eigenvalues --    0.77882   0.78110   0.78494   0.78890   0.79613
 Alpha virt. eigenvalues --    0.79847   0.80420   0.80598   0.81102   0.82014
 Alpha virt. eigenvalues --    0.82847   0.83588   0.84108   0.84461   0.85020
 Alpha virt. eigenvalues --    0.85390   0.85745   0.87339   0.87536   0.88370
 Alpha virt. eigenvalues --    0.88867   0.89263   0.89822   0.90741   0.91008
 Alpha virt. eigenvalues --    0.91665   0.91789   0.92627   0.93199   0.94207
 Alpha virt. eigenvalues --    0.94648   0.95435   0.95906   0.96782   0.97137
 Alpha virt. eigenvalues --    0.97722   0.98660   0.98920   1.00154   1.00540
 Alpha virt. eigenvalues --    1.01638   1.02153   1.02789   1.03368   1.04099
 Alpha virt. eigenvalues --    1.04198   1.04951   1.05413   1.06146   1.07073
 Alpha virt. eigenvalues --    1.08373   1.09201   1.09721   1.10348   1.10647
 Alpha virt. eigenvalues --    1.11076   1.11513   1.12409   1.13134   1.13767
 Alpha virt. eigenvalues --    1.14465   1.14998   1.15913   1.16525   1.16927
 Alpha virt. eigenvalues --    1.17495   1.18646   1.19252   1.20908   1.21173
 Alpha virt. eigenvalues --    1.21887   1.23034   1.24011   1.24649   1.25274
 Alpha virt. eigenvalues --    1.25765   1.26822   1.27288   1.29228   1.29896
 Alpha virt. eigenvalues --    1.30780   1.31845   1.32697   1.33225   1.33318
 Alpha virt. eigenvalues --    1.34457   1.34865   1.35833   1.36305   1.37317
 Alpha virt. eigenvalues --    1.38496   1.39246   1.40874   1.41062   1.42320
 Alpha virt. eigenvalues --    1.43004   1.43755   1.43879   1.45239   1.45715
 Alpha virt. eigenvalues --    1.47017   1.47859   1.48783   1.49483   1.50470
 Alpha virt. eigenvalues --    1.51596   1.52210   1.52619   1.54531   1.54706
 Alpha virt. eigenvalues --    1.55977   1.56918   1.57662   1.58996   1.60624
 Alpha virt. eigenvalues --    1.61133   1.61950   1.62064   1.62655   1.64042
 Alpha virt. eigenvalues --    1.64482   1.64663   1.65728   1.66871   1.67154
 Alpha virt. eigenvalues --    1.67228   1.67640   1.68436   1.68983   1.69566
 Alpha virt. eigenvalues --    1.70451   1.70994   1.71899   1.72594   1.73329
 Alpha virt. eigenvalues --    1.73984   1.74752   1.75057   1.75967   1.76443
 Alpha virt. eigenvalues --    1.77066   1.78120   1.78669   1.79769   1.80120
 Alpha virt. eigenvalues --    1.80283   1.81343   1.81488   1.82075   1.82910
 Alpha virt. eigenvalues --    1.83149   1.83646   1.84408   1.85100   1.86050
 Alpha virt. eigenvalues --    1.87453   1.87588   1.88090   1.88708   1.89171
 Alpha virt. eigenvalues --    1.89470   1.90674   1.91271   1.91872   1.92791
 Alpha virt. eigenvalues --    1.94509   1.95541   1.96219   1.96830   1.97741
 Alpha virt. eigenvalues --    1.98388   1.99129   1.99825   2.00044   2.01035
 Alpha virt. eigenvalues --    2.02503   2.02954   2.04210   2.04742   2.06111
 Alpha virt. eigenvalues --    2.06749   2.07297   2.09181   2.09679   2.10516
 Alpha virt. eigenvalues --    2.10898   2.12297   2.12552   2.13898   2.14974
 Alpha virt. eigenvalues --    2.15911   2.16522   2.17898   2.18991   2.19285
 Alpha virt. eigenvalues --    2.20260   2.21353   2.22763   2.23280   2.24151
 Alpha virt. eigenvalues --    2.24542   2.25012   2.27611   2.28398   2.29322
 Alpha virt. eigenvalues --    2.29722   2.30733   2.31338   2.32584   2.33141
 Alpha virt. eigenvalues --    2.34684   2.35866   2.36784   2.38854   2.39976
 Alpha virt. eigenvalues --    2.40796   2.41783   2.42240   2.43887   2.44841
 Alpha virt. eigenvalues --    2.46793   2.47037   2.49743   2.50867   2.51083
 Alpha virt. eigenvalues --    2.51423   2.52637   2.53908   2.53955   2.55407
 Alpha virt. eigenvalues --    2.56631   2.57945   2.58480   2.59121   2.60233
 Alpha virt. eigenvalues --    2.62089   2.63176   2.64401   2.64944   2.66073
 Alpha virt. eigenvalues --    2.66323   2.66930   2.68467   2.69029   2.69312
 Alpha virt. eigenvalues --    2.70774   2.72614   2.73962   2.74551   2.75496
 Alpha virt. eigenvalues --    2.76424   2.78227   2.78753   2.80786   2.82145
 Alpha virt. eigenvalues --    2.84551   2.85437   2.86078   2.86639   2.87833
 Alpha virt. eigenvalues --    2.89374   2.91042   2.91368   2.92480   2.94120
 Alpha virt. eigenvalues --    2.95215   2.98316   3.00832   3.03142   3.04640
 Alpha virt. eigenvalues --    3.07083   3.11784   3.16797   3.17580   3.24364
 Alpha virt. eigenvalues --    3.25837   3.31863   3.32551   3.33740   3.34464
 Alpha virt. eigenvalues --    3.35279   3.37348   3.39527   3.40035   3.42055
 Alpha virt. eigenvalues --    3.42294   3.44415   3.45903   3.46752   3.48397
 Alpha virt. eigenvalues --    3.49706   3.56179   3.56611   3.63154   3.67103
 Alpha virt. eigenvalues --    3.68843   3.78559   3.83488   3.88958   3.93465
 Alpha virt. eigenvalues --    4.02537   4.04961   4.09920   4.13130   4.15868
 Alpha virt. eigenvalues --    4.36358   5.07478
          Condensed to atoms (all electrons):
               1          2          3          4          5          6
     1  N   15.493275  -6.237892  -1.038951  -0.475515  -0.170679   2.113603
     2  C   -6.237892  28.548054  -1.486587   0.447004  -0.601338  -9.335231
     3  C   -1.038951  -1.486587   9.608151  -1.318668   0.968392  -0.086877
     4  C   -0.475515   0.447004  -1.318668   6.498399  -0.182731   0.288454
     5  C   -0.170679  -0.601338   0.968392  -0.182731   5.933266  -0.272873
     6  C    2.113603  -9.335231  -0.086877   0.288454  -0.272873  23.435583
     7  C    0.531641  -2.567028  -1.082942   0.052318  -0.327043  -3.919014
     8  N   -0.071015   0.636687   0.043890   0.008708   0.049329   0.021024
     9  C    0.124695  -0.735048  -0.052254   0.007593  -0.032216  -1.066579
    10  C   -0.158618   0.193146  -0.126147  -0.020401  -0.001122   0.429894
    11  C   -0.386860  -1.228068  -0.039944  -0.027315   0.012804  -8.433860
    12  O   -0.003653   0.007885  -0.004572  -0.000032  -0.000372  -0.042789
    13  O   -0.197123   0.182488   0.053830   0.035146  -0.001039  -0.037158
    14  H   -1.112740   0.667128   0.199134   0.037565  -0.185065  -0.304800
    15  H   -0.148144  -0.029291   0.327720  -0.325185   0.224103  -0.062018
    16  H    0.157210   0.116341   0.147079  -0.372696  -0.104263  -0.001943
    17  H    0.438797   0.063360  -1.371980   0.181807  -0.262034   0.441645
    18  H   -0.140328  -0.013245   0.034218   0.289251   0.091407  -0.072082
    19  H   -0.282820   0.116398  -0.119282   0.066448  -0.317821   0.229406
    20  H   -0.173990  -2.922982   0.797358  -0.085260   0.037351   1.256848
    21  H   -0.109769  -0.405161  -0.481761   0.085988  -0.068363  -0.578639
    22  H    0.007192  -0.043722   0.004929   0.000289  -0.001048  -0.062447
    23  H   -0.003055   0.079893   0.002849   0.000711  -0.000162   0.024227
    24  H    0.033578  -0.156684  -0.100087  -0.007549  -0.003237   1.129326
    25  C    1.087244  -1.130258  -0.359342   0.083384  -0.191022   0.649852
    26  H   -0.007311   0.052086  -0.008655  -0.002809  -0.001635  -0.030130
    27  H   -0.305788   0.711127   0.294743  -0.147169  -0.023452  -0.324679
    28  H   -0.022867  -0.010098  -0.020963   0.010227  -0.002250   0.007478
    29  H   -0.006612   0.013746   0.001386   0.001466   0.000168  -0.019748
    30  H    0.001503  -0.006935   0.000590   0.000172  -0.000054   0.015910
    31  O   -0.019071  -0.044952   0.010449  -0.010193   0.011566   0.001748
    32  H    0.002697   0.000530  -0.002253  -0.001789  -0.002567  -0.003684
    33  H    0.013384  -0.021025   0.015011  -0.005291   0.012404   0.031108
    34  H   -0.339722   0.148465  -0.087122   0.078236   0.027737  -0.028616
    35  H    0.164196  -0.007684   0.119149  -0.049794  -0.036803   0.010782
    36  H   -0.596637  -0.123155  -0.008265   0.027498   0.057841   0.164274
    37  O    0.000124   0.002379   0.001178  -0.000585   0.001463   0.002546
    38  H    0.000225   0.001663  -0.000043   0.000596   0.000259   0.000226
    39  H   -0.000544   0.000198   0.000366  -0.000166   0.000030  -0.000470
    40  O   -0.000000   0.000338   0.000078   0.000095  -0.000008   0.000136
    41  H    0.000001  -0.000018   0.000018  -0.000011   0.000004   0.000003
    42  H    0.000044   0.000037  -0.000128   0.000093  -0.000048  -0.000095
               7          8          9         10         11         12
     1  N    0.531641  -0.071015   0.124695  -0.158618  -0.386860  -0.003653
     2  C   -2.567028   0.636687  -0.735048   0.193146  -1.228068   0.007885
     3  C   -1.082942   0.043890  -0.052254  -0.126147  -0.039944  -0.004572
     4  C    0.052318   0.008708   0.007593  -0.020401  -0.027315  -0.000032
     5  C   -0.327043   0.049329  -0.032216  -0.001122   0.012804  -0.000372
     6  C   -3.919014   0.021024  -1.066579   0.429894  -8.433860  -0.042789
     7  C   17.010259  -0.804587  -1.200992   0.221677  -2.011924  -0.125343
     8  N   -0.804587   8.095081   0.036180   0.315763  -0.522757  -0.031214
     9  C   -1.200992   0.036180  10.078332  -2.645372   1.678657   0.043821
    10  C    0.221677   0.315763  -2.645372  11.799534  -4.435568  -0.017273
    11  C   -2.011924  -0.522757   1.678657  -4.435568  22.380879   0.020389
    12  O   -0.125343  -0.031214   0.043821  -0.017273   0.020389   8.021718
    13  O   -0.114485   0.007122  -0.008520   0.000673  -0.020466   0.004764
    14  H   -0.044243   0.003357  -0.001028  -0.000461   0.016542  -0.000047
    15  H    0.000494  -0.000361   0.002076  -0.002614   0.007771  -0.000018
    16  H    0.014471  -0.000500  -0.003386   0.002968   0.004480  -0.000040
    17  H    0.368031  -0.018029  -0.002777   0.006362  -0.017271   0.000199
    18  H   -0.309311   0.030926   0.030664  -0.065844   0.044688  -0.003331
    19  H    0.048749  -0.001099  -0.000284   0.000606   0.019831   0.000023
    20  H   -0.268390   0.003884   0.037824  -0.015636  -0.089817  -0.000183
    21  H   -0.712048  -0.057317  -0.356140   0.429754  -0.425346   0.081595
    22  H    0.112054  -0.174581  -0.445420   0.094241   0.222418   0.001661
    23  H   -0.126881  -0.053139   0.399590  -1.191606   0.590023  -0.000004
    24  H    0.239608  -0.036356  -0.198520   0.661966  -2.468618   0.000264
    25  C    0.172214  -0.023352  -0.048949   0.110476  -0.249413  -0.000535
    26  H   -0.085734   0.132171   0.098397  -0.083286   0.013160   0.245345
    27  H   -0.064379  -0.036588   0.012148  -0.046803  -0.000367   0.000836
    28  H    0.014709   0.002468  -0.000505   0.002227   0.003238   0.000407
    29  H    0.047982  -0.010951   0.001783  -0.000994   0.003715   0.038672
    30  H    0.006727  -0.003188  -0.008935   0.010034  -0.006982   0.358808
    31  O   -0.111330   0.022714  -0.000127   0.004270   0.008206  -0.113621
    32  H    0.000693  -0.006741  -0.004675   0.000821  -0.000543   0.008889
    33  H   -0.003191   0.004094   0.003410  -0.001039   0.001162  -0.016441
    34  H   -0.002050  -0.002728  -0.007259   0.018623  -0.023923  -0.000307
    35  H    0.033941   0.001206  -0.011045   0.015854   0.020420   0.000755
    36  H   -0.009770   0.002128   0.005646  -0.011491   0.018199  -0.000017
    37  O    0.007223  -0.002250  -0.000577  -0.000220   0.000705   0.001308
    38  H   -0.002470   0.000402   0.000423  -0.000425   0.000693  -0.000424
    39  H    0.001576  -0.000103   0.000053   0.000037  -0.000083  -0.000116
    40  O    0.000618   0.000410   0.000593  -0.000034   0.000078  -0.000943
    41  H   -0.000106   0.000017  -0.000035   0.000033  -0.000007   0.000051
    42  H    0.000317  -0.000047  -0.000067   0.000029  -0.000087  -0.000002
              13         14         15         16         17         18
     1  N   -0.197123  -1.112740  -0.148144   0.157210   0.438797  -0.140328
     2  C    0.182488   0.667128  -0.029291   0.116341   0.063360  -0.013245
     3  C    0.053830   0.199134   0.327720   0.147079  -1.371980   0.034218
     4  C    0.035146   0.037565  -0.325185  -0.372696   0.181807   0.289251
     5  C   -0.001039  -0.185065   0.224103  -0.104263  -0.262034   0.091407
     6  C   -0.037158  -0.304800  -0.062018  -0.001943   0.441645  -0.072082
     7  C   -0.114485  -0.044243   0.000494   0.014471   0.368031  -0.309311
     8  N    0.007122   0.003357  -0.000361  -0.000500  -0.018029   0.030926
     9  C   -0.008520  -0.001028   0.002076  -0.003386  -0.002777   0.030664
    10  C    0.000673  -0.000461  -0.002614   0.002968   0.006362  -0.065844
    11  C   -0.020466   0.016542   0.007771   0.004480  -0.017271   0.044688
    12  O    0.004764  -0.000047  -0.000018  -0.000040   0.000199  -0.003331
    13  O    8.251419   0.045854  -0.004097  -0.003782  -0.002220   0.016643
    14  H    0.045854   2.965091   0.125086  -0.315441  -0.044153   0.082467
    15  H   -0.004097   0.125086   2.119105  -0.630364  -0.345253   0.231480
    16  H   -0.003782  -0.315441  -0.630364   2.326780   0.230942  -0.494894
    17  H   -0.002220  -0.044153  -0.345253   0.230942   2.744778  -0.793935
    18  H    0.016643   0.082467   0.231480  -0.494894  -0.793935   2.537230
    19  H   -0.010558  -0.591245  -0.241302   0.207868   0.071877  -0.083064
    20  H    0.004181   0.097177   0.066739  -0.076633  -0.382508   0.258732
    21  H   -0.001862  -0.105299  -0.029856   0.103065   0.161841  -0.350412
    22  H   -0.000349  -0.000105   0.000044   0.000064   0.001012  -0.002225
    23  H   -0.000048   0.000079  -0.000005  -0.000029  -0.001964   0.002868
    24  H   -0.001784  -0.004591   0.000640   0.001415   0.015716  -0.017895
    25  C   -0.024941  -0.168767  -0.017864   0.022997   0.082189  -0.075661
    26  H    0.003798   0.001240   0.000238  -0.001381  -0.000631   0.002491
    27  H    0.049464   0.212827   0.015552  -0.010506  -0.038763   0.071470
    28  H    0.381593  -0.017225  -0.001884   0.004161   0.002133  -0.008528
    29  H   -0.008923   0.001740   0.000204  -0.001350  -0.000307   0.003479
    30  H   -0.001048  -0.000123  -0.000016   0.000182   0.000067  -0.000880
    31  O   -0.060935   0.000444  -0.000568   0.003661   0.000769   0.000468
    32  H   -0.006881  -0.001385  -0.000454   0.001527   0.000156  -0.000452
    33  H    0.031636  -0.000728   0.000814  -0.002107  -0.001837   0.004443
    34  H    0.039220   0.001596  -0.002100   0.010753   0.000673  -0.007203
    35  H    0.000615   0.011302   0.002713  -0.012419  -0.004663   0.018176
    36  H   -0.011516   0.009901  -0.002416   0.004795   0.013158  -0.011600
    37  O    0.001968   0.000256   0.000012  -0.002547  -0.000112   0.004766
    38  H    0.000211   0.000040   0.000065  -0.000121  -0.000260   0.000871
    39  H   -0.000428   0.000113   0.000068  -0.000219  -0.000017  -0.000157
    40  O    0.000056  -0.000011   0.000007   0.000167   0.000063   0.000457
    41  H   -0.000011   0.000002   0.000001  -0.000003   0.000002  -0.000007
    42  H   -0.000016  -0.000014  -0.000011   0.000097   0.000042  -0.000341
              19         20         21         22         23         24
     1  N   -0.282820  -0.173990  -0.109769   0.007192  -0.003055   0.033578
     2  C    0.116398  -2.922982  -0.405161  -0.043722   0.079893  -0.156684
     3  C   -0.119282   0.797358  -0.481761   0.004929   0.002849  -0.100087
     4  C    0.066448  -0.085260   0.085988   0.000289   0.000711  -0.007549
     5  C   -0.317821   0.037351  -0.068363  -0.001048  -0.000162  -0.003237
     6  C    0.229406   1.256848  -0.578639  -0.062447   0.024227   1.129326
     7  C    0.048749  -0.268390  -0.712048   0.112054  -0.126881   0.239608
     8  N   -0.001099   0.003884  -0.057317  -0.174581  -0.053139  -0.036356
     9  C   -0.000284   0.037824  -0.356140  -0.445420   0.399590  -0.198520
    10  C    0.000606  -0.015636   0.429754   0.094241  -1.191606   0.661966
    11  C    0.019831  -0.089817  -0.425346   0.222418   0.590023  -2.468618
    12  O    0.000023  -0.000183   0.081595   0.001661  -0.000004   0.000264
    13  O   -0.010558   0.004181  -0.001862  -0.000349  -0.000048  -0.001784
    14  H   -0.591245   0.097177  -0.105299  -0.000105   0.000079  -0.004591
    15  H   -0.241302   0.066739  -0.029856   0.000044  -0.000005   0.000640
    16  H    0.207868  -0.076633   0.103065   0.000064  -0.000029   0.001415
    17  H    0.071877  -0.382508   0.161841   0.001012  -0.001964   0.015716
    18  H   -0.083064   0.258732  -0.350412  -0.002225   0.002868  -0.017895
    19  H    2.462111  -0.110560   0.053914   0.000097  -0.000425   0.004095
    20  H   -0.110560   3.634196  -0.038038  -0.000320   0.003233  -0.171185
    21  H    0.053914  -0.038038   5.493108   0.020167  -0.021891   0.029175
    22  H    0.000097  -0.000320   0.020167   2.090282  -0.121860  -0.006049
    23  H   -0.000425   0.003233  -0.021891  -0.121860   2.164035  -0.143817
    24  H    0.004095  -0.171185   0.029175  -0.006049  -0.143817   3.058416
    25  C   -0.038417  -0.101262   0.175194   0.002682  -0.007917   0.056734
    26  H   -0.000339  -0.000533  -0.122445  -0.081308   0.010310  -0.000404
    27  H   -0.024501   0.016899  -0.389620  -0.001275   0.002023  -0.004157
    28  H    0.006232  -0.000974   0.066534   0.000029  -0.000042   0.000438
    29  H   -0.000257   0.000456  -0.067425   0.003520  -0.000116  -0.000069
    30  H    0.000017  -0.000160   0.008559   0.005098  -0.000642   0.000021
    31  O    0.000637  -0.001411   0.081912   0.000704   0.000133   0.000123
    32  H    0.000549  -0.000090   0.017214  -0.000515  -0.000015  -0.000005
    33  H   -0.002490   0.000672  -0.053454   0.000405   0.000206  -0.000845
    34  H   -0.001496   0.013459   0.030279   0.000289  -0.000804   0.003065
    35  H   -0.000609   0.004985  -0.052290  -0.002561  -0.000908  -0.006469
    36  H    0.066772   0.069143   0.032442   0.000374   0.000164   0.003659
    37  O    0.000054   0.000092  -0.024196  -0.000016  -0.000005   0.000018
    38  H   -0.000045   0.000036  -0.006410   0.000009  -0.000002   0.000001
    39  H   -0.000007   0.000030   0.003340   0.000007  -0.000000  -0.000001
    40  O   -0.000000   0.000003  -0.004693   0.000063  -0.000004   0.000005
    41  H   -0.000000  -0.000000   0.000148  -0.000005   0.000001  -0.000001
    42  H    0.000002  -0.000010   0.000019  -0.000002   0.000001  -0.000001
              25         26         27         28         29         30
     1  N    1.087244  -0.007311  -0.305788  -0.022867  -0.006612   0.001503
     2  C   -1.130258   0.052086   0.711127  -0.010098   0.013746  -0.006935
     3  C   -0.359342  -0.008655   0.294743  -0.020963   0.001386   0.000590
     4  C    0.083384  -0.002809  -0.147169   0.010227   0.001466   0.000172
     5  C   -0.191022  -0.001635  -0.023452  -0.002250   0.000168  -0.000054
     6  C    0.649852  -0.030130  -0.324679   0.007478  -0.019748   0.015910
     7  C    0.172214  -0.085734  -0.064379   0.014709   0.047982   0.006727
     8  N   -0.023352   0.132171  -0.036588   0.002468  -0.010951  -0.003188
     9  C   -0.048949   0.098397   0.012148  -0.000505   0.001783  -0.008935
    10  C    0.110476  -0.083286  -0.046803   0.002227  -0.000994   0.010034
    11  C   -0.249413   0.013160  -0.000367   0.003238   0.003715  -0.006982
    12  O   -0.000535   0.245345   0.000836   0.000407   0.038672   0.358808
    13  O   -0.024941   0.003798   0.049464   0.381593  -0.008923  -0.001048
    14  H   -0.168767   0.001240   0.212827  -0.017225   0.001740  -0.000123
    15  H   -0.017864   0.000238   0.015552  -0.001884   0.000204  -0.000016
    16  H    0.022997  -0.001381  -0.010506   0.004161  -0.001350   0.000182
    17  H    0.082189  -0.000631  -0.038763   0.002133  -0.000307   0.000067
    18  H   -0.075661   0.002491   0.071470  -0.008528   0.003479  -0.000880
    19  H   -0.038417  -0.000339  -0.024501   0.006232  -0.000257   0.000017
    20  H   -0.101262  -0.000533   0.016899  -0.000974   0.000456  -0.000160
    21  H    0.175194  -0.122445  -0.389620   0.066534  -0.067425   0.008559
    22  H    0.002682  -0.081308  -0.001275   0.000029   0.003520   0.005098
    23  H   -0.007917   0.010310   0.002023  -0.000042  -0.000116  -0.000642
    24  H    0.056734  -0.000404  -0.004157   0.000438  -0.000069   0.000021
    25  C    4.723272  -0.008007  -0.249034   0.008681  -0.003080   0.001093
    26  H   -0.008007   0.581172   0.014531  -0.001017   0.000523  -0.110904
    27  H   -0.249034   0.014531   0.940694  -0.203166   0.009572  -0.001156
    28  H    0.008681  -0.001017  -0.203166   0.619527   0.000330  -0.000384
    29  H   -0.003080   0.000523   0.009572   0.000330   0.387633  -0.018039
    30  H    0.001093  -0.110904  -0.001156  -0.000384  -0.018039   0.601186
    31  O    0.006310  -0.024917  -0.087909   0.013287   0.144641   0.006079
    32  H   -0.000102   0.004312   0.007609  -0.001691  -0.016389  -0.000802
    33  H    0.003625   0.002293   0.011380  -0.022519  -0.038549   0.002052
    34  H    0.168809  -0.001784   0.043164  -0.007081  -0.000950   0.000281
    35  H   -0.000460   0.003216   0.027663   0.008795   0.001911  -0.000354
    36  H    0.313324  -0.000633  -0.084113   0.004426  -0.000384   0.000053
    37  O   -0.000134   0.001577  -0.000615   0.000924   0.001751   0.000026
    38  H   -0.000067   0.000468   0.002354  -0.000902  -0.000463   0.000108
    39  H   -0.000110  -0.000574  -0.001821   0.000774   0.000850  -0.000045
    40  O    0.000003  -0.001643   0.000108   0.000031   0.002198   0.000275
    41  H    0.000003  -0.000066  -0.000064  -0.000001  -0.000478   0.000080
    42  H    0.000005   0.000098  -0.000017   0.000012  -0.000109   0.000015
              31         32         33         34         35         36
     1  N   -0.019071   0.002697   0.013384  -0.339722   0.164196  -0.596637
     2  C   -0.044952   0.000530  -0.021025   0.148465  -0.007684  -0.123155
     3  C    0.010449  -0.002253   0.015011  -0.087122   0.119149  -0.008265
     4  C   -0.010193  -0.001789  -0.005291   0.078236  -0.049794   0.027498
     5  C    0.011566  -0.002567   0.012404   0.027737  -0.036803   0.057841
     6  C    0.001748  -0.003684   0.031108  -0.028616   0.010782   0.164274
     7  C   -0.111330   0.000693  -0.003191  -0.002050   0.033941  -0.009770
     8  N    0.022714  -0.006741   0.004094  -0.002728   0.001206   0.002128
     9  C   -0.000127  -0.004675   0.003410  -0.007259  -0.011045   0.005646
    10  C    0.004270   0.000821  -0.001039   0.018623   0.015854  -0.011491
    11  C    0.008206  -0.000543   0.001162  -0.023923   0.020420   0.018199
    12  O   -0.113621   0.008889  -0.016441  -0.000307   0.000755  -0.000017
    13  O   -0.060935  -0.006881   0.031636   0.039220   0.000615  -0.011516
[...]
 86,0.00089677,-0.00238035,0.00137281,0.00001454,0.00011426,-0.00005982
 ,0.00003538,-0.00005765,0.00007793,-0.00000690,-0.00000442,-0.00009707
 ,0.00004568,-0.00007918,0.00007529,0.00005282,-0.00003590,-0.00001700,
 0.00007210,0.00015367,0.00008143,0.00001264,0.00003779,0.00002007,0.00
 001048,-0.00005857,-0.00009941,-0.00024630,0.00028331,0.00001285,0.000
 01212,0.00002058,-0.00000108,0.00000537,0.00001369,0.00000129,0.000000
 11,0.00001350,-0.00005480,0.00000666,-0.00007133,0.00004736,0.00004981
 ,0.00047555,-0.00066051,-0.00002602,0.00050209,-0.00000128,-0.00002763
 ,-0.00007736,0.00022591,-0.00318683,0.00004829,-0.00003353,0.00002455,
 0.00005401,0.00165775,0.00091668,0.00279114,-0.00165906,0.00275950,-0.
 00986698,-0.00212696,0.00034168,-0.00076843,-0.00002343,0.00001767,-0.
 00002492,-0.00000372,0.00000508,0.00003054,0.00003722,-0.00000850,-0.0
 0000689,-0.02046503,0.21311537,-0.24716351,0.02308779,-0.19524396,0.25
 277322,0.00006900,0.00006961,0.00006827,0.00001266,-0.00004625,-0.0000
 1319,0.00003357,0.00000709,0.00002910,-0.00006720,0.00008359,0.0001173
 6,-0.00002971,-0.00001226,-0.00009349,0.00003499,-0.00005056,0.0000055
 6,0.00002261,0.00002120,0.00000079,-0.00003590,-0.00000108,0.00000406,
 0.00002102,-0.00000858,-0.00000800,-0.00001899,0.00001514,0.00000443,-
 0.00002939,-0.00000212,-0.00000307,-0.00021814,0.00019541,0.00002450,0
 .00012154,0.00006594,0.00007892,-0.00002278,0.00000504,-0.00001229,-0.
 00013573,0.00005374,0.00004133,-0.00002910,-0.00031447,-0.00013358,-0.
 00000578,0.00003210,-0.00001450,0.00003352,-0.00002464,-0.00005745,0.0
 0004500,0.00002156,0.00002152,0.00001496,0.00001630,0.00001193,0.00002
 822,0.00010459,0.00003763,-0.00000186,0.00000397,0.00000036,0.00000009
 ,0.00000428,-0.00000006,-0.00000339,-0.00000775,-0.00000092,-0.0000487
 1,0.00001256,-0.00003733,0.00004423,-0.00001438,-0.00002125,0.00002502
 ,-0.00004582,0.00000576,0.00000516,-0.00002940,-0.00005920,0.00021071,
 -0.00044426,-0.00005179,0.00010458,0.00004255,0.00000170,0.00060555,0.
 00198327,0.00369378,-0.00022131,-0.00093498,-0.00493427,-0.00028909,0.
 00008715,0.00009753,-0.00000119,-0.00000701,0.00000060,0.00000927,0.00
 001394,0.00000942,0.00001100,-0.00000329,-0.00000445,-0.27019694,-0.26
 738334,-0.07520057,0.00010395,0.00383266,-0.00146610,0.26966087,0.0001
 0813,-0.00009790,-0.00003191,-0.00002788,0.00000153,-0.00001403,-0.000
 09830,0.00002374,-0.00003422,0.00005851,-0.00006271,-0.00000767,0.0000
 4201,0.00007685,0.00000733,0.00005651,0.00005868,0.00000363,-0.0001196
 6,0.00000814,-0.00000983,0.00020894,0.00008909,-0.00000246,0.00001448,
 -0.00007187,-0.00000559,0.00001163,0.00002801,0.00000189,-0.00000197,-
 0.00004518,-0.00000180,0.00031347,0.00033008,0.00007456,0.00047051,-0.
 00014530,0.00015380,0.00000628,0.00000110,0.00004450,0.00014872,-0.000
 03725,-0.00006314,-0.00014235,0.00032537,0.00001582,0.00003912,-0.0000
 2130,0.00000643,-0.00006025,-0.00006689,0.00007804,0.00002751,-0.00001
 076,0.00000805,0.00002163,-0.00000270,0.00000579,-0.00003264,-0.000050
 47,-0.00001891,-0.00000421,0.00000518,0.00000248,0.00000716,0.00000116
 ,-0.00000218,0.00001158,0.00000493,0.00000036,-0.00003305,-0.00002061,
 -0.00002430,-0.00039890,-0.00011150,0.00001986,-0.00020023,0.00004065,
 0.00011592,0.00004566,0.00005846,-0.00002512,-0.00012379,-0.00023492,0
 .00006954,-0.00000036,-0.00007588,-0.00004238,0.00072500,0.00085210,0.
 00046933,-0.00192913,-0.00323683,-0.00180713,-0.00077807,0.00021680,-0
 .00058169,-0.00000549,0.00000243,0.00001248,-0.00000921,-0.00000703,-0
 .00001033,0.00001704,0.00000188,-0.00000608,-0.23768313,-0.26071337,-0
 .04566170,-0.02270826,-0.01667165,-0.01225052,0.26135263,0.28020858,0.
 00000104,-0.00000234,-0.00005986,0.00000655,0.00000209,0.00002654,0.00
 003538,-0.00000532,-0.00003554,-0.00003235,0.00007121,0.00000251,-0.00
 000891,-0.00005350,0.00005495,0.00000487,-0.00004276,-0.00000323,0.000
 05229,0.00011343,0.00002502,0.00001486,-0.00000592,-0.00000811,-0.0000
 0391,-0.00000264,0.00000333,0.00000544,-0.00000438,-0.00000350,-0.0000
 0948,0.00001315,-0.00000094,0.00012786,-0.00009227,0.00010058,-0.00009
 341,0.00015508,-0.00014489,-0.00001443,0.00000770,-0.00003043,0.000038
 83,-0.00003002,0.00000545,-0.00003850,-0.00004883,0.00004682,0.0000353
 5,0.00000459,-0.00000376,-0.00003117,0.00001833,0.00003439,0.00000265,
 0.00000535,-0.00001182,0.00000065,-0.00000022,-0.00000639,0.00002698,0
 .00002598,-0.00006859,-0.00000163,0.00000080,0.00000302,0.00000009,-0.
 00000109,0.00000297,-0.00000036,-0.00000239,0.00000254,0.00000136,-0.0
 0000193,0.00001510,-0.00005778,-0.00000116,-0.00000552,-0.00005300,0.0
 0000011,0.00004995,-0.00009186,-0.00007853,-0.00000753,-0.00014286,0.0
 0037753,-0.00018934,-0.00003639,-0.00003857,0.00002420,0.00074136,-0.0
 0339760,-0.00601602,-0.00607310,-0.00011656,0.00738816,0.00048091,-0.0
 0012232,0.00036495,-0.00000336,0.00000280,-0.00000654,-0.00000269,-0.0
 0000119,-0.00000081,0.00000140,-0.00000078,-0.00000402,-0.09679342,-0.
 07628536,-0.06386167,0.02363143,0.01872106,0.00996388,0.07886098,0.058
 22296,0.05433822,0.00004849,0.00011318,-0.00028702,0.00014644,-0.00013
 005,0.00020626,0.00051818,-0.00030903,0.00020484,-0.00022001,-0.000124
 83,0.00004253,0.00006938,0.00000026,-0.00006133,-0.00005053,-0.0004582
 6,-0.00012336,0.00057355,0.00069812,-0.00047891,0.00052167,0.00019227,
 -0.00068496,-0.00009904,0.00014825,0.00007838,0.00011534,-0.00017996,0
 .00005626,0.00006583,0.00021034,0.00010332,0.00467603,0.00062100,0.000
 87123,0.00079345,0.00000854,-0.00022217,-0.00002973,0.00003403,-0.0000
 8166,-0.00001120,0.00005491,-0.00000992,-0.00000867,-0.00003490,-0.000
 01647,-0.00009662,0.00006539,-0.00006360,-0.00001564,-0.00010196,-0.00
 010011,-0.00001422,0.00000286,0.00001938,-0.00004351,0.00000690,-0.000
 08987,-0.00075818,-0.00070221,0.00037959,-0.00004899,-0.00003249,0.000
 00249,0.00000549,0.00000553,-0.00000063,-0.00002906,-0.00002380,0.0000
 1459,0.00008148,0.00004688,0.00002761,-0.00260244,-0.00006292,0.001648
 29,-0.00043267,-0.00003480,0.00046372,-0.00004105,-0.00001432,0.000043
 69,-0.00059016,0.00030978,-0.00008492,-0.00021784,-0.00041496,-0.00077
 613,0.00095229,0.00010000,0.00040498,-0.00065732,-0.00055875,-0.000748
 47,-0.00104512,0.00006804,-0.00027130,-0.00001543,0.00002956,-0.000043
 67,0.00000275,-0.00000678,0.00004798,-0.00001059,-0.00000499,0.0000078
 8,0.00456261,0.00016422,0.00015611,-0.00608827,-0.00118625,0.00113655,
 -0.00021933,0.00100979,-0.00051325,0.09839041,0.00016840,0.00038821,0.
 00006501,0.00011221,-0.00051012,0.00002046,-0.00012025,0.00015142,-0.0
 0010968,-0.00030578,0.00001443,0.00025191,-0.00003587,-0.00018470,-0.0
 0026905,0.00023208,-0.00013367,0.00004912,0.00007716,-0.00095992,-0.00
 006971,-0.00135421,0.00012745,-0.00041175,0.00036606,0.00079848,0.0000
 4359,-0.00031482,0.00009925,0.00009556,-0.00005641,-0.00009988,0.00000
 025,-0.00050451,0.00020294,-0.00868744,0.00053785,0.00033381,0.0001034
 4,-0.00003377,0.00005543,-0.00001054,0.00000417,0.00008976,-0.00000587
 ,-0.00006140,0.00007426,-0.00025278,0.00006787,0.00002910,0.00000884,-
 0.00020205,-0.00032102,-0.00000437,0.00007534,0.00006192,0.00007811,0.
 00002580,0.00011160,0.00002796,-0.00004078,-0.00037433,0.00001255,0.00
 005565,0.00001722,0.00002369,-0.00004723,0.00001961,0.00002592,-0.0000
 3709,-0.00001824,0.00000979,-0.00003580,-0.00002118,-0.00007405,0.0027
 0802,0.00063454,0.00082994,-0.00023806,-0.00020394,0.00012799,-0.00002
 966,-0.00008306,-0.00006435,0.00053757,-0.00464981,0.00138692,-0.00107
 742,0.00070932,-0.00016382,0.00057074,0.00468082,0.00224885,-0.0009138
 6,-0.00436700,-0.00549642,-0.00077953,-0.00010899,-0.00034679,-0.00000
 071,0.00001633,-0.00001491,0.00002644,0.00003449,0.00006833,0.00001558
 ,-0.00000500,0.00000916,-0.00087071,-0.01593053,0.01522209,-0.00316278
 ,-0.00125606,-0.00533724,0.00121774,0.00011719,0.00176027,-0.16616971,
 0.38382535,-0.00031414,0.00023847,0.00034427,0.00018555,-0.00030576,-0
 .00021893,-0.00028995,0.00022305,-0.00005519,0.00028464,0.00006015,-0.
 00000549,-0.00005615,-0.00018268,-0.00007930,-0.00035626,-0.00058741,-
 0.00001032,0.00024491,0.00078836,-0.00051868,-0.00163339,-0.00054054,0
 .00046454,-0.00007436,0.00055555,0.00005618,-0.00018019,-0.00018545,-0
 .00000417,-0.00018146,0.00014167,0.00007131,0.00079336,-0.00811932,-0.
 00988557,-0.00128881,0.00025347,-0.00012632,0.00004643,-0.00000220,0.0
 0004565,-0.00007459,0.00005906,0.00001242,-0.00000391,-0.00009153,0.00
 000796,-0.00014669,0.00004464,0.00002902,0.00014169,-0.00012191,-0.000
 42190,-0.00006495,0.00003027,0.00000643,-0.00005750,0.00007673,0.00005
 890,0.00007657,-0.00060378,-0.00002730,0.00003285,-0.00005944,-0.00005
 509,-0.00006948,0.00000372,-0.00002383,-0.00006744,-0.00004256,-0.0000
 1618,0.00009117,-0.00000985,0.00006361,0.00416123,0.00129128,-0.000578
 06,0.00069606,-0.00014682,-0.00049280,-0.00000736,-0.00003624,0.000090
 67,0.00028539,-0.00186414,0.00176271,-0.00187670,0.00027055,-0.0018996
 8,-0.00099476,0.00133660,-0.00137946,-0.00002769,-0.00080326,0.0010868
 6,0.00186492,-0.00036206,0.00094140,0.00002950,-0.00000435,0.00001106,
 0.00002843,0.00001608,0.00001956,-0.00005000,0.00000885,0.00002093,0.0
 0163647,0.01404496,-0.00052566,0.00061838,-0.00490378,-0.01124347,-0.0
 0082531,0.00128122,-0.00199243,0.04622159,0.05183186,0.70700157,-0.000
 02317,-0.00016060,0.00007518,-0.00015459,0.00024651,-0.00002454,-0.000
 00774,-0.00002339,-0.00000651,0.00003091,0.00000428,-0.00004608,0.0000
 0529,0.00006520,0.00006163,0.00010423,0.00056298,-0.00003747,-0.000667
 83,-0.00056416,0.00013437,-0.00046800,0.00013260,0.00090517,-0.0000166
 9,-0.00034957,-0.00002515,0.00007706,0.00009882,-0.00008961,0.00007569
 ,-0.00009035,-0.00005245,-0.00847522,-0.00005832,-0.00081727,-0.000384
 15,-0.00004729,0.00013110,0.00000332,-0.00002616,0.00001530,0.00000991
 ,-0.00003304,0.00000078,0.00000994,0.00000880,0.00002966,0.00002813,-0
 .00002847,0.00000292,0.00006985,0.00006761,0.00011225,0.00000960,-0.00
 001481,-0.00001295,0.00002513,-0.00005215,0.00001250,-0.00043840,0.000
 67713,-0.00057231,0.00003381,0.00003864,0.00003471,0.00002087,-0.00000
 256,-0.00001488,0.00004565,0.00003603,0.00000872,-0.00003984,-0.000009
 21,-0.00001485,0.00204096,-0.00129699,-0.00435376,0.00014918,0.0000623
 5,-0.00021201,0.00002334,0.00000733,-0.00002346,0.00084589,-0.00047155
 ,0.00008651,0.00070851,0.00070160,0.00241795,-0.00077808,0.00017133,-0
 .00002097,0.00054667,0.00006029,0.00009683,0.00057194,0.00000778,0.000
 07150,0.00000297,-0.00002012,0.00001602,-0.00000757,-0.00000160,-0.000
 03736,0.00001222,0.00000258,-0.00000573,-0.00045935,-0.00007714,0.0008
 9423,0.00040611,0.00009327,-0.00147796,0.00013679,-0.00013775,-0.00016
 471,-0.05292504,0.11184514,0.09059166,0.05656386,-0.00002672,-0.000172
 33,-0.00008522,0.00000685,0.00021445,0.00002755,0.00010821,-0.00007460
 ,0.00009733,0.00004562,-0.00002213,-0.00008828,0.00002881,0.00009558,0
 .00009419,-0.00010242,-0.00025133,-0.00010019,0.00013212,0.00126306,-0
 .00003044,0.00156745,0.00003453,0.00010478,-0.00028526,-0.00063575,-0.
 00003329,0.00030547,-0.00010244,-0.00005747,0.00004192,0.00015109,0.00
 003912,0.00176134,-0.00413208,0.00581022,-0.00008840,-0.00016696,-0.00
 010171,0.00000189,-0.00001753,-0.00001019,-0.00000591,-0.00002770,0.00
 000196,0.00001296,-0.00002460,0.00006801,-0.00001904,-0.00001011,-0.00
 001535,0.00006043,0.00002649,0.00002059,-0.00001597,-0.00002545,-0.000
 02391,-0.00000477,-0.00005539,-0.00002075,0.00020614,-0.00012900,0.000
 33516,-0.00007495,-0.00002471,0.00000275,0.00005900,-0.00000890,-0.000
 01374,0.00001093,-0.00001625,0.00000351,0.00000877,0.00002497,0.000029
 82,-0.00473117,-0.00136196,-0.00218016,-0.00001329,0.00008715,0.000046
 07,-0.00000678,0.00004243,0.00001656,-0.00038689,0.00486713,0.00006572
 ,0.00083613,-0.00120934,-0.00081059,-0.00004599,-0.00275555,-0.0007281
 0,0.00044227,0.00018841,0.00230095,0.00027068,0.00006046,0.00014719,-0
 .00000559,-0.00000566,0.00000082,-0.00001358,-0.00001780,-0.00002661,-
 0.00000378,-0.00000005,-0.00000840,-0.00070501,0.00076092,0.00017259,0
 .00198512,-0.00365872,-0.00303636,-0.00010854,-0.00023852,0.00002274,0
 .10478242,-0.26977496,-0.22004163,-0.10222916,0.26578043,0.00021795,-0
 .00025823,-0.00034156,-0.00003366,0.00027157,0.00016051,0.00022116,-0.
 00015682,0.00013277,-0.00004333,-0.00006154,-0.00009805,0.00003781,0.0
 0020098,0.00015436,0.00015647,0.00006555,-0.00005883,-0.00006276,0.000
 53143,0.00003985,0.00287365,0.00058250,-0.00088543,-0.00002440,-0.0008
 8043,-0.00004457,0.00035852,0.00006673,0.00001889,0.00013827,0.0000195
 4,0.00002670,0.00134286,0.00284695,0.00281011,0.00115323,-0.00038870,-
 0.00003476,-0.00001993,-0.00000677,-0.00003289,0.00002463,-0.00004346,
 -0.00000944,0.00003819,-0.00000190,0.00010779,-0.00000292,-0.00001665,
 -0.00003461,0.00010582,0.00005884,0.00008623,0.00000660,-0.00004738,-0
 .00004200,0.00002610,-0.00007875,-0.00006383,-0.00038203,0.00026456,0.
 00032715,-0.00008370,0.00002744,0.00005240,0.00010246,-0.00000783,0.00
 000320,0.00004020,0.00000779,0.00000473,-0.00004617,0.00002039,-0.0000
 0277,-0.00856535,-0.00273701,0.00025176,-0.00057066,0.00017665,0.00053
 019,0.00001634,0.00007124,-0.00002896,-0.00113709,0.00600348,-0.003984
 01,0.00261311,-0.00040284,0.00205467,0.00116751,-0.00458902,0.00014450
 ,0.00039892,0.00290827,0.00295465,-0.00175223,0.00033890,-0.00066833,-
 0.00002590,0.00000853,-0.00000961,-0.00003241,-0.00002886,-0.00002432,
 0.00002910,-0.00000690,-0.00002137,0.00016052,0.00205748,-0.00528653,-
 0.00105953,-0.00504020,0.00674909,-0.00005633,-0.00017587,-0.00007431,
 0.06620723,-0.17369590,-0.22664966,-0.07646076,0.20177045,0.24479695,-
 0.00001377,-0.00000101,0.00010713,0.00001610,-0.00002998,-0.00010369,-
 0.00018134,0.00008284,-0.00001087,0.00010267,0.00003912,0.00001834,-0.
 00003225,-0.00001866,0.00000492,-0.00011058,-0.00014370,0.00003011,-0.
 00004396,0.00046479,-0.00015380,-0.00000593,-0.00013593,0.00015814,-0.
 00004077,-0.00010184,-0.00000252,-0.00002419,-0.00002406,-0.00001718,-
 0.00007360,0.00000882,0.00002757,-0.00020379,0.00046857,0.00077995,-0.
 00016083,0.00000783,0.00005818,0.00001045,-0.00000577,0.00003142,-0.00
 000623,-0.00000587,-0.00000389,-0.00001686,-0.00002306,0.00001746,-0.0
 0004765,0.00002764,0.00000713,0.00013708,-0.00000133,-0.00017457,0.000
 00317,0.00000314,-0.00000473,0.00000125,0.00001451,0.00002445,0.000113
 57,-0.00010751,0.00010894,0.00000362,-0.00001352,-0.00001618,-0.000002
 01,-0.00000168,-0.00001208,-0.00001336,-0.00001761,-0.00001487,-0.0000
 2643,-0.00001447,-0.00000502,0.00022050,0.00018919,-0.00010848,0.00013
 699,-0.00001194,-0.00009889,0.00001591,0.00000150,-0.00001475,-0.00004
 592,0.00013040,-0.00011975,0.00022429,0.00007062,0.00017430,-0.0000632
 0,-0.00009548,-0.00001950,-0.00002389,0.00008788,0.00003852,0.00013313
 ,-0.00002374,0.00007625,0.00000487,-0.00000877,0.00001366,0.00000145,0
 .00000349,-0.00000933,0.00000024,0.00000213,-0.00000345,0.00016933,-0.
 00143588,0.00062788,-0.00067779,0.00135650,0.00029521,0.00022022,-0.00
 020168,0.00009631,-0.04525269,0.05774859,-0.13938972,0.00228783,-0.003
 80131,0.01292254,0.04326435,-0.00000750,-0.00006091,-0.00003975,-0.000
 02945,0.00008640,0.00000301,0.00003561,-0.00007174,0.00000096,-0.00003
 582,-0.00000159,-0.00000200,0.00002395,0.00002320,0.00002786,-0.000044
 74,0.00002402,-0.00003384,-0.00003856,0.00007911,-0.00003630,-0.000063
 17,-0.00007227,0.00016671,-0.00009343,-0.00000587,0.00001040,0.0000020
 8,-0.00004870,-0.00001291,-0.00000545,0.00000761,0.00000555,0.00044228
 ,-0.00163546,-0.00156782,0.00002477,-0.00001835,0.00000219,-0.00000461
 ,-0.00000377,-0.00000603,0.00002643,-0.00002233,0.00000250,-0.00000106
 ,0.00001484,0.00000970,0.00003341,0.00000042,0.00000181,-0.00000690,0.
 00006453,0.00008054,0.00000235,-0.00000673,-0.00000387,-0.00000482,-0.
 00001449,-0.00001110,-0.00003397,-0.00009585,-0.00003191,-0.00000039,-
 0.00001700,-0.00002744,-0.00000891,-0.00000292,-0.00000569,0.00000345,
 0.00000171,0.00000078,0.00000290,0.00000405,0.00000184,0.00045429,0.00
 028276,-0.00006483,-0.00003026,0.00002154,0.00001613,0.00000028,0.0000
 0708,-0.00000278,0.00007932,-0.00024595,0.00014469,-0.00016645,-0.0000
 2458,-0.00056505,-0.00000892,0.00015005,0.00013232,0.00001447,-0.00003
 492,-0.00036929,-0.00002015,0.00001368,-0.00002729,-0.00000293,-0.0000
 0124,-0.00000018,-0.00000258,-0.00000437,-0.00000788,0.00000148,0.0000
 0132,-0.00000104,-0.00101792,-0.00381063,0.00094200,0.00208413,0.00518
 821,0.00129520,0.00019668,-0.00052930,0.00081048,0.06187869,-0.0935905
 2,0.16645817,-0.00919588,0.01132270,-0.02967422,-0.05448272,0.08302625
 ,0.00008690,-0.00006697,-0.00004936,-0.00003675,0.00006159,0.00001659,
 -0.00002131,0.00000251,-0.00001548,-0.00004625,0.00001018,0.00001025,0
 .00000282,0.00003414,0.00001751,0.00006264,0.00008686,-0.00001226,-0.0
 0013364,0.00004943,0.00003217,0.00028952,0.00007615,0.00010657,-0.0000
 2766,-0.00016621,-0.00001781,0.00003804,0.00004508,-0.00001798,0.00000
 829,-0.00004384,-0.00002322,0.00079948,-0.00057992,0.00046375,0.000235
 75,-0.00005536,0.00005810,-0.00000799,-0.00000144,0.00000094,0.0000170
 0,-0.00002567,0.00000233,-0.00000548,0.00003126,-0.00002307,0.00007505
 ,-0.00002858,0.00000415,-0.00009509,0.00004037,0.00008883,0.00002544,-
 0.00000541,0.00000103,0.00002700,-0.00001145,0.00000327,-0.00009935,0.
 00004349,-0.00008663,-0.00001065,0.00000777,0.00000997,0.00001560,0.00
 000129,0.00000589,0.00001954,0.00000211,0.00001129,-0.00003783,-0.0000
 0043,-0.00001875,-0.00046955,-0.00015292,-0.00017911,-0.00012119,0.000
 02673,0.00007845,0.00000492,0.00000681,-0.00002624,-0.00005971,0.00026
 132,-0.00013711,-0.00013421,-0.00014546,-0.00040583,0.00021023,-0.0001
 1400,0.00030009,-0.00003919,-0.00008643,-0.00029295,-0.00034364,0.0000
 6731,-0.00017560,-0.00000470,-0.00000256,0.00000250,-0.00000668,-0.000
 00300,-0.00000896,0.00001449,-0.00000168,-0.00000723,0.00023353,-0.001
 80739,0.00146707,-0.00009293,0.00293576,-0.00191414,-0.00012234,0.0001
 8285,0.00008267,-0.11368676,0.12071303,-0.45588555,-0.01122818,0.01623
 432,-0.02301067,0.12466485,-0.13762165,0.47954453\\0.00000530,-0.00000
 689,0.00000464,-0.00000216,0.00000105,-0.00000816,0.00000326,0.0000035
 5,0.00000093,-0.00000121,0.00000368,0.00000172,0.00000309,0.00000046,-
 0.00000182,0.00000766,0.00000447,-0.00000013,-0.00000799,-0.00000352,-
 0.00000061,-0.00000422,0.00000486,0.00000368,0.00000371,-0.00000165,-0
 .00000028,-0.00000480,0.00000181,0.00000191,-0.00000164,-0.00000251,0.
 00000098,-0.00000370,0.00000301,-0.00000112,0.00000288,0.00000628,-0.0
 0001805,-0.00000119,-0.00000058,-0.00000115,0.00000160,0.00000097,-0.0
 0000118,-0.00000081,-0.00000146,-0.00000203,0.00000063,0.00000157,-0.0
 0000056,-0.00000060,0.00000185,-0.00000010,0.00000022,-0.00000062,0.00
 000031,0.00000061,0.00000058,0.00000078,-0.00000006,-0.00000027,0.0000
 0093,0.00000040,-0.00000022,0.00000326,0.,0.00000002,0.00000270,-0.000
 00024,0.00000086,0.00000143,0.00000231,-0.00000113,-0.00000267,0.00000
 687,-0.00000466,0.00000493,-0.00000633,-0.00000025,0.00000978,0.000002
 71,-0.00000776,0.00000487,0.00000077,0.00000591,-0.00000031,-0.0000011
 6,-0.00000409,-0.00000129,0.00000235,-0.00001025,-0.00001265,-0.000002
 34,0.00000043,0.00001555,-0.00001069,0.00000180,0.00000047,0.00000040,
 -0.00000233,-0.00000066,-0.00000104,-0.00000069,0.00000127,0.00000007,
 0.00000056,-0.00000011,0.00000671,0.00000648,-0.00000873,-0.00000265,-
 0.00000732,0.00000492,-0.00000241,-0.00000098,0.00000134,0.00000077,0.
 00001231,-0.00000180,0.00000192,-0.00000891,0.00000767,0.00000100,0.00
 000357,-0.00001065\\\@


 The number of Unix installations has grown to 10,
  with more expected.
                  -- The Unix Programmer's Manual,
                     2nd Edition, June, 1972.
 Job cpu time:       1 days 20 hours 55 minutes 57.6 seconds.
 Elapsed time:       0 days  1 hours 36 minutes 25.3 seconds.
 File lengths (MBytes):  RWF=   1440 Int=      0 D2E=      0 Chk=     40 Scr=      8
 Normal termination of Gaussian 16 at Thu May 18 06:16:29 2023.
