 Entering Gaussian System, Link 0=g16
 Input=Nic5h3bLMidBTS2_2.gjf
 Output=Nic5h3bLMidBTS2_2.log
 Initial command:
 /sw/contrib/gaussian/g16/A03/g16/l1.exe "/gscratch/scrubbed/gds001/Gau-17344.inp" -scrdir="/gscratch/scrubbed/gds001/"
 Entering Link 1 = /sw/contrib/gaussian/g16/A03/g16/l1.exe PID=     17345.
  
 Copyright (c) 1988,1990,1992,1993,1995,1998,2003,2009,2016,
            Gaussian, Inc.  All Rights Reserved.
  
 This is part of the Gaussian(R) 16 program.  It is based on
 the Gaussian(R) 09 system (copyright 2009, Gaussian, Inc.),
 the Gaussian(R) 03 system (copyright 2003, Gaussian, Inc.),
 the Gaussian(R) 98 system (copyright 1998, Gaussian, Inc.),
 the Gaussian(R) 94 system (copyright 1995, Gaussian, Inc.),
 the Gaussian 92(TM) system (copyright 1992, Gaussian, Inc.),
 the Gaussian 90(TM) system (copyright 1990, Gaussian, Inc.),
 the Gaussian 88(TM) system (copyright 1988, Gaussian, Inc.),
 the Gaussian 86(TM) system (copyright 1986, Carnegie Mellon
 University), and the Gaussian 82(TM) system (copyright 1983,
 Carnegie Mellon University). Gaussian is a federally registered
 trademark of Gaussian, Inc.
  
 This software contains proprietary and confidential information,
 including trade secrets, belonging to Gaussian, Inc.
  
 This software is provided under written license and may be
 used, copied, transmitted, or stored only in accord with that
 written license.
  
 The following legend is applicable only to US Government
 contracts under FAR:
  
                    RESTRICTED RIGHTS LEGEND
  
 Use, reproduction and disclosure by the US Government is
 subject to restrictions as set forth in subparagraphs (a)
 and (c) of the Commercial Computer Software - Restricted
 Rights clause in FAR 52.227-19.
  
 Gaussian, Inc.
 340 Quinnipiac St., Bldg. 40, Wallingford CT 06492
  
  
 ---------------------------------------------------------------
 Warning -- This program may not be used in any manner that
 competes with the business of Gaussian, Inc. or will provide
 assistance to any competitor of Gaussian, Inc.  The licensee
 of this program is prohibited from giving any competitor of
 Gaussian, Inc. access to this program.  By using this program,
 the user acknowledges that Gaussian, Inc. is engaged in the
 business of creating and licensing software in the field of
 computational chemistry and represents and warrants to the
 licensee that it is not a competitor of Gaussian, Inc. and that
 it will not use this program in any manner prohibited above.
 ---------------------------------------------------------------
  

 Cite this work as:
 Gaussian 16, Revision A.03,
 M. J. Frisch, G. W. Trucks, H. B. Schlegel, G. E. Scuseria, 
 M. A. Robb, J. R. Cheeseman, G. Scalmani, V. Barone, 
 G. A. Petersson, H. Nakatsuji, X. Li, M. Caricato, A. V. Marenich, 
 J. Bloino, B. G. Janesko, R. Gomperts, B. Mennucci, H. P. Hratchian, 
 J. V. Ortiz, A. F. Izmaylov, J. L. Sonnenberg, D. Williams-Young, 
 F. Ding, F. Lipparini, F. Egidi, J. Goings, B. Peng, A. Petrone, 
 T. Henderson, D. Ranasinghe, V. G. Zakrzewski, J. Gao, N. Rega, 
 G. Zheng, W. Liang, M. Hada, M. Ehara, K. Toyota, R. Fukuda, 
 J. Hasegawa, M. Ishida, T. Nakajima, Y. Honda, O. Kitao, H. Nakai, 
 T. Vreven, K. Throssell, J. A. Montgomery, Jr., J. E. Peralta, 
 F. Ogliaro, M. J. Bearpark, J. J. Heyd, E. N. Brothers, K. N. Kudin, 
 V. N. Staroverov, T. A. Keith, R. Kobayashi, J. Normand, 
 K. Raghavachari, A. P. Rendell, J. C. Burant, S. S. Iyengar, 
 J. Tomasi, M. Cossi, J. M. Millam, M. Klene, C. Adamo, R. Cammi, 
 J. W. Ochterski, R. L. Martin, K. Morokuma, O. Farkas, 
 J. B. Foresman, and D. J. Fox, Gaussian, Inc., Wallingford CT, 2016.
 
 ******************************************
 Gaussian 16:  ES64L-G16RevA.03 25-Dec-2016
                20-May-2023 
 ******************************************
 %nprocshared=28
 Will use up to   28 processors via shared memory.
 %mem=41GB
 ----------------------------------------------------------------
 # wB97XD/aug-cc-pVDZ opt=(TS,CalcAll,MaxStep=5,NoEigenTest) freq
 ----------------------------------------------------------------
 1/5=1,8=5,10=4,11=1,18=20,26=3,38=1/1,3;
 2/9=110,12=2,17=6,18=5,40=1/2;
 3/5=16,7=10,11=2,25=1,30=1,71=2,74=-58,140=1/1,2,3;
 4//1;
 5/5=2,38=5/2;
 8/6=4,10=90,11=11/1;
 11/6=1,8=1,9=11,15=111,16=1/1,2,10;
 10/6=1/2;
 6/7=2,8=2,9=2,10=2,18=1,28=1/1;
 7/10=1,25=1/1,2,3,16;
 1/5=1,8=5,10=4,11=1,18=20,26=3/3(3);
 2/9=110/2;
 7/8=1,9=1,25=1,44=-1/16;
 99//99;
 2/9=110/2;
 3/5=16,7=10,11=2,25=1,30=1,71=2,74=-58,140=1/1,2,3;
 4/5=5,16=3,69=1/1;
 5/5=2,38=5/2;
 8/6=4,10=90,11=11/1;
 11/6=1,8=1,9=11,15=111,16=1/1,2,10;
 10/6=1/2;
 7/10=1,25=1/1,2,3,16;
 1/5=1,8=5,10=4,11=1,18=20,26=3/3(-8);
 2/9=110/2;
 6/7=2,8=2,9=2,10=2,18=1,19=2,28=1/1;
 7/8=1,9=1,25=1,44=-1/16;
 99//99;
 ----
 blah
 ----
 Symbolic Z-matrix:
 Charge =  1 Multiplicity = 1
 N                     2.11539  -0.77925   0.42496 
 C                     1.81678  -0.04027  -0.83747 
 C                     1.14216  -1.08906  -1.75719 
 C                     1.30446  -2.43791  -1.02698 
 C                     2.39895  -2.16331  -0.00366 
 C                     1.02227   1.21313  -0.55778 
 C                    -0.32418   1.13174  -0.21015 
 N                    -1.07789   2.18358   0.10988 
 C                    -0.51675   3.39846   0.07792 
 C                     0.81254   3.59535  -0.27774 
 C                     1.59191   2.48463  -0.5948 
 O                    -3.31222   0.88663   0.72513 
 O                     0.24452  -0.87253   2.12744 
 H                     2.37996  -2.83359   0.86408 
 H                     1.5716   -3.25508  -1.70397 
 H                     0.37055  -2.71358  -0.52219 
 H                     1.64678  -1.09418  -2.72899 
 H                     0.08961  -0.85588  -1.94647 
 H                     3.40102  -2.21552  -0.46122 
 H                     2.78199   0.25745  -1.27842 
 H                    -0.82804   0.16503  -0.19599 
 H                    -1.15772   4.23893   0.34324 
 H                     1.22808   4.60079  -0.30174 
 H                     2.63952   2.60984  -0.87195 
 C                     3.20284  -0.17119   1.1961 
 H                    -2.59504   1.56891   0.55946 
 H                     1.0267   -0.83933   1.3494 
 H                     0.56991  -1.25963   2.94364 
 H                    -2.58239  -0.44928   1.46967 
 H                    -4.05479   1.33177   1.14111 
 O                    -2.08424  -1.27193   1.7106 
 H                    -2.19958  -1.91989   0.95631 
 H                    -0.97112  -1.0831    1.90855 
 H                     3.39183  -0.76974   2.09502 
 H                     2.91404   0.83985   1.50529 
 H                     4.13033  -0.12066   0.60507 
 O                    -2.25196  -2.7244   -0.43554 
 H                    -2.61487  -2.06617  -1.06643 
 H                    -2.76723  -3.52882  -0.53448 
 O                    -3.02733  -0.48946  -1.68582 
 H                    -3.36634   0.08456  -0.97687 
 H                    -3.52337  -0.27878  -2.48002 
 
 Add virtual bond connecting atoms H33        and O31        Dist= 2.17D+00.
 Add virtual bond connecting atoms H33        and O13        Dist= 2.37D+00.
 Add virtual bond connecting atoms H27        and N1         Dist= 2.70D+00.
 Add virtual bond connecting atoms O37        and H32        Dist= 3.04D+00.
 Add virtual bond connecting atoms N8         and H26        Dist= 3.21D+00.
 Add virtual bond connecting atoms H29        and O12        Dist= 3.20D+00.
 Add virtual bond connecting atoms O40        and H38        Dist= 3.29D+00.
 Add virtual bond connecting atoms H41        and O12        Dist= 3.56D+00.

 GradGradGradGradGradGradGradGradGradGradGradGradGradGradGradGradGradGrad
 Berny optimization.
 Initialization pass.
                           ----------------------------
                           !    Initial Parameters    !
                           ! (Angstroms and Degrees)  !
 --------------------------                            --------------------------
 ! Name  Definition              Value          Derivative Info.                !
 --------------------------------------------------------------------------------
 ! R1    R(1,2)                  1.493          calculate D2E/DX2 analytically  !
 ! R2    R(1,5)                  1.4764         calculate D2E/DX2 analytically  !
 ! R3    R(1,25)                 1.4652         calculate D2E/DX2 analytically  !
 ! R4    R(1,27)                 1.4295         calculate D2E/DX2 analytically  !
 ! R5    R(2,3)                  1.5495         calculate D2E/DX2 analytically  !
 ! R6    R(2,6)                  1.5101         calculate D2E/DX2 analytically  !
 ! R7    R(2,20)                 1.1021         calculate D2E/DX2 analytically  !
 ! R8    R(3,4)                  1.5424         calculate D2E/DX2 analytically  !
 ! R9    R(3,17)                 1.095          calculate D2E/DX2 analytically  !
 ! R10   R(3,18)                 1.0946         calculate D2E/DX2 analytically  !
 ! R11   R(4,5)                  1.5233         calculate D2E/DX2 analytically  !
 ! R12   R(4,15)                 1.0943         calculate D2E/DX2 analytically  !
 ! R13   R(4,16)                 1.0968         calculate D2E/DX2 analytically  !
 ! R14   R(5,14)                 1.0966         calculate D2E/DX2 analytically  !
 ! R15   R(5,19)                 1.1028         calculate D2E/DX2 analytically  !
 ! R16   R(6,7)                  1.393          calculate D2E/DX2 analytically  !
 ! R17   R(6,11)                 1.3938         calculate D2E/DX2 analytically  !
 ! R18   R(7,8)                  1.333          calculate D2E/DX2 analytically  !
 ! R19   R(7,21)                 1.0902         calculate D2E/DX2 analytically  !
 ! R20   R(8,9)                  1.3386         calculate D2E/DX2 analytically  !
 ! R21   R(8,26)                 1.6975         calculate D2E/DX2 analytically  !
 ! R22   R(9,10)                 1.3901         calculate D2E/DX2 analytically  !
 ! R23   R(9,22)                 1.0898         calculate D2E/DX2 analytically  !
 ! R24   R(10,11)                1.3934         calculate D2E/DX2 analytically  !
 ! R25   R(10,23)                1.0882         calculate D2E/DX2 analytically  !
 ! R26   R(11,24)                1.0909         calculate D2E/DX2 analytically  !
 ! R27   R(12,26)                1.0037         calculate D2E/DX2 analytically  !
 ! R28   R(12,29)                1.6946         calculate D2E/DX2 analytically  !
 ! R29   R(12,30)                0.9605         calculate D2E/DX2 analytically  !
 ! R30   R(12,41)                1.8823         calculate D2E/DX2 analytically  !
 ! R31   R(13,27)                1.1037         calculate D2E/DX2 analytically  !
 ! R32   R(13,28)                0.9602         calculate D2E/DX2 analytically  !
 ! R33   R(13,33)                1.253          calculate D2E/DX2 analytically  !
 ! R34   R(25,34)                1.0964         calculate D2E/DX2 analytically  !
 ! R35   R(25,35)                1.096          calculate D2E/DX2 analytically  !
 ! R36   R(25,36)                1.101          calculate D2E/DX2 analytically  !
 ! R37   R(29,31)                0.9914         calculate D2E/DX2 analytically  !
 ! R38   R(31,32)                1.0011         calculate D2E/DX2 analytically  !
 ! R39   R(31,33)                1.1462         calculate D2E/DX2 analytically  !
 ! R40   R(32,37)                1.6085         calculate D2E/DX2 analytically  !
 ! R41   R(37,38)                0.9813         calculate D2E/DX2 analytically  !
 ! R42   R(37,39)                0.9604         calculate D2E/DX2 analytically  !
 ! R43   R(38,40)                1.7435         calculate D2E/DX2 analytically  !
 ! R44   R(40,41)                0.9732         calculate D2E/DX2 analytically  !
 ! R45   R(40,42)                0.9598         calculate D2E/DX2 analytically  !
 ! A1    A(2,1,5)              104.8892         calculate D2E/DX2 analytically  !
 ! A2    A(2,1,25)             112.8334         calculate D2E/DX2 analytically  !
 ! A3    A(2,1,27)             114.5383         calculate D2E/DX2 analytically  !
 ! A4    A(5,1,25)             113.5334         calculate D2E/DX2 analytically  !
 ! A5    A(5,1,27)             107.1347         calculate D2E/DX2 analytically  !
 ! A6    A(25,1,27)            104.0232         calculate D2E/DX2 analytically  !
 ! A7    A(1,2,3)              104.7116         calculate D2E/DX2 analytically  !
 ! A8    A(1,2,6)              111.0666         calculate D2E/DX2 analytically  !
 ! A9    A(1,2,20)             107.2686         calculate D2E/DX2 analytically  !
 ! A10   A(3,2,6)              116.2733         calculate D2E/DX2 analytically  !
 ! A11   A(3,2,20)             109.0657         calculate D2E/DX2 analytically  !
 ! A12   A(6,2,20)             108.0982         calculate D2E/DX2 analytically  !
 ! A13   A(2,3,4)              105.373          calculate D2E/DX2 analytically  !
 ! A14   A(2,3,17)             109.2257         calculate D2E/DX2 analytically  !
 ! A15   A(2,3,18)             112.1552         calculate D2E/DX2 analytically  !
 ! A16   A(4,3,17)             111.5665         calculate D2E/DX2 analytically  !
 ! A17   A(4,3,18)             111.6766         calculate D2E/DX2 analytically  !
 ! A18   A(17,3,18)            106.8981         calculate D2E/DX2 analytically  !
 ! A19   A(3,4,5)              103.6504         calculate D2E/DX2 analytically  !
 ! A20   A(3,4,15)             112.697          calculate D2E/DX2 analytically  !
 ! A21   A(3,4,16)             110.3704         calculate D2E/DX2 analytically  !
 ! A22   A(5,4,15)             112.0128         calculate D2E/DX2 analytically  !
 ! A23   A(5,4,16)             110.3599         calculate D2E/DX2 analytically  !
 ! A24   A(15,4,16)            107.7527         calculate D2E/DX2 analytically  !
 ! A25   A(1,5,4)              103.0629         calculate D2E/DX2 analytically  !
 ! A26   A(1,5,14)             109.8736         calculate D2E/DX2 analytically  !
 ! A27   A(1,5,19)             109.8369         calculate D2E/DX2 analytically  !
 ! A28   A(4,5,14)             114.1378         calculate D2E/DX2 analytically  !
 ! A29   A(4,5,19)             111.4446         calculate D2E/DX2 analytically  !
 ! A30   A(14,5,19)            108.3665         calculate D2E/DX2 analytically  !
 ! A31   A(2,6,7)              120.4157         calculate D2E/DX2 analytically  !
 ! A32   A(2,6,11)             122.4964         calculate D2E/DX2 analytically  !
 ! A33   A(7,6,11)             117.0636         calculate D2E/DX2 analytically  !
 ! A34   A(6,7,8)              124.0801         calculate D2E/DX2 analytically  !
 ! A35   A(6,7,21)             120.117          calculate D2E/DX2 analytically  !
 ! A36   A(8,7,21)             115.801          calculate D2E/DX2 analytically  !
 ! A37   A(7,8,9)              118.2549         calculate D2E/DX2 analytically  !
 ! A38   A(7,8,26)             106.4517         calculate D2E/DX2 analytically  !
 ! A39   A(9,8,26)             135.2023         calculate D2E/DX2 analytically  !
 ! A40   A(8,9,10)             122.3801         calculate D2E/DX2 analytically  !
 ! A41   A(8,9,22)             116.5887         calculate D2E/DX2 analytically  !
 ! A42   A(10,9,22)            121.0308         calculate D2E/DX2 analytically  !
 ! A43   A(9,10,11)            118.697          calculate D2E/DX2 analytically  !
 ! A44   A(9,10,23)            120.1113         calculate D2E/DX2 analytically  !
 ! A45   A(11,10,23)           121.1914         calculate D2E/DX2 analytically  !
 ! A46   A(6,11,10)            119.5086         calculate D2E/DX2 analytically  !
 ! A47   A(6,11,24)            120.2618         calculate D2E/DX2 analytically  !
 ! A48   A(10,11,24)           120.2295         calculate D2E/DX2 analytically  !
 ! A49   A(26,12,29)           107.4985         calculate D2E/DX2 analytically  !
 ! A50   A(26,12,30)           107.9912         calculate D2E/DX2 analytically  !
 ! A51   A(26,12,41)            99.2626         calculate D2E/DX2 analytically  !
 ! A52   A(29,12,30)           120.5325         calculate D2E/DX2 analytically  !
 ! A53   A(29,12,41)            94.229          calculate D2E/DX2 analytically  !
 ! A54   A(30,12,41)           124.5303         calculate D2E/DX2 analytically  !
 ! A55   A(27,13,28)           111.7893         calculate D2E/DX2 analytically  !
 ! A56   A(27,13,33)           124.7109         calculate D2E/DX2 analytically  !
 ! A57   A(28,13,33)           114.1751         calculate D2E/DX2 analytically  !
 ! A58   A(1,25,34)            109.4437         calculate D2E/DX2 analytically  !
 ! A59   A(1,25,35)            109.6165         calculate D2E/DX2 analytically  !
 ! A60   A(1,25,36)            111.2072         calculate D2E/DX2 analytically  !
 ! A61   A(34,25,35)           108.5261         calculate D2E/DX2 analytically  !
 ! A62   A(34,25,36)           108.6629         calculate D2E/DX2 analytically  !
 ! A63   A(35,25,36)           109.335          calculate D2E/DX2 analytically  !
 ! A64   A(8,26,12)            158.2027         calculate D2E/DX2 analytically  !
 ! A65   A(29,31,32)           107.2221         calculate D2E/DX2 analytically  !
 ! A66   A(29,31,33)           113.1542         calculate D2E/DX2 analytically  !
 ! A67   A(32,31,33)           110.4037         calculate D2E/DX2 analytically  !
 ! A68   A(32,37,38)           103.4657         calculate D2E/DX2 analytically  !
 ! A69   A(32,37,39)           121.7048         calculate D2E/DX2 analytically  !
 ! A70   A(38,37,39)           107.2877         calculate D2E/DX2 analytically  !
 ! A71   A(37,38,40)           157.2905         calculate D2E/DX2 analytically  !
 ! A72   A(38,40,41)           110.918          calculate D2E/DX2 analytically  !
 ! A73   A(38,40,42)           127.9329         calculate D2E/DX2 analytically  !
 ! A74   A(41,40,42)           107.0557         calculate D2E/DX2 analytically  !
 ! A75   A(12,41,40)           154.1645         calculate D2E/DX2 analytically  !
 ! A76   L(1,27,13,7,-1)       182.7894         calculate D2E/DX2 analytically  !
 ! A77   L(12,29,31,2,-1)      171.1926         calculate D2E/DX2 analytically  !
 ! A78   L(31,32,37,1,-1)      172.4972         calculate D2E/DX2 analytically  !
 ! A79   L(13,33,31,3,-1)      180.1338         calculate D2E/DX2 analytically  !
 ! A80   L(1,27,13,7,-2)       183.613          calculate D2E/DX2 analytically  !
 ! A81   L(12,29,31,2,-2)      188.6546         calculate D2E/DX2 analytically  !
 ! A82   L(31,32,37,1,-2)      188.9428         calculate D2E/DX2 analytically  !
 ! A83   L(13,33,31,3,-2)      180.1961         calculate D2E/DX2 analytically  !
 ! D1    D(5,1,2,3)             32.486          calculate D2E/DX2 analytically  !
 ! D2    D(5,1,2,6)            158.7549         calculate D2E/DX2 analytically  !
 ! D3    D(5,1,2,20)           -83.3175         calculate D2E/DX2 analytically  !
 ! D4    D(25,1,2,3)           156.5578         calculate D2E/DX2 analytically  !
 ! D5    D(25,1,2,6)           -77.1733         calculate D2E/DX2 analytically  !
 ! D6    D(25,1,2,20)           40.7543         calculate D2E/DX2 analytically  !
 ! D7    D(27,1,2,3)           -84.6756         calculate D2E/DX2 analytically  !
 ! D8    D(27,1,2,6)            41.5932         calculate D2E/DX2 analytically  !
 ! D9    D(27,1,2,20)          159.5208         calculate D2E/DX2 analytically  !
 ! D10   D(2,1,5,4)            -43.7022         calculate D2E/DX2 analytically  !
 ! D11   D(2,1,5,14)          -165.7246         calculate D2E/DX2 analytically  !
 ! D12   D(2,1,5,19)            75.1591         calculate D2E/DX2 analytically  !
 ! D13   D(25,1,5,4)          -167.3269         calculate D2E/DX2 analytically  !
 ! D14   D(25,1,5,14)           70.6507         calculate D2E/DX2 analytically  !
 ! D15   D(25,1,5,19)          -48.4656         calculate D2E/DX2 analytically  !
 ! D16   D(27,1,5,4)            78.4155         calculate D2E/DX2 analytically  !
 ! D17   D(27,1,5,14)          -43.6069         calculate D2E/DX2 analytically  !
 ! D18   D(27,1,5,19)         -162.7232         calculate D2E/DX2 analytically  !
 ! D19   D(2,1,13,28)         -172.3045         calculate D2E/DX2 analytically  !
 ! D20   D(2,1,13,33)           42.7887         calculate D2E/DX2 analytically  !
 ! D21   D(5,1,13,28)           70.6118         calculate D2E/DX2 analytically  !
 ! D22   D(5,1,13,33)          -74.2951         calculate D2E/DX2 analytically  !
 ! D23   D(25,1,13,28)         -49.1657         calculate D2E/DX2 analytically  !
 ! D24   D(25,1,13,33)         165.9274         calculate D2E/DX2 analytically  !
 ! D25   D(2,1,25,34)         -178.597          calculate D2E/DX2 analytically  !
 ! D26   D(2,1,25,35)           62.4866         calculate D2E/DX2 analytically  !
 ! D27   D(2,1,25,36)          -58.5321         calculate D2E/DX2 analytically  !
 ! D28   D(5,1,25,34)          -59.4234         calculate D2E/DX2 analytically  !
 ! D29   D(5,1,25,35)         -178.3398         calculate D2E/DX2 analytically  !
 ! D30   D(5,1,25,36)           60.6415         calculate D2E/DX2 analytically  !
 ! D31   D(27,1,25,34)          56.6797         calculate D2E/DX2 analytically  !
 ! D32   D(27,1,25,35)         -62.2366         calculate D2E/DX2 analytically  !
 ! D33   D(27,1,25,36)         176.7446         calculate D2E/DX2 analytically  !
 ! D34   D(1,2,3,4)             -8.8298         calculate D2E/DX2 analytically  !
 ! D35   D(1,2,3,17)          -128.8046         calculate D2E/DX2 analytically  !
 ! D36   D(1,2,3,18)           112.8763         calculate D2E/DX2 analytically  !
 ! D37   D(6,2,3,4)           -131.7908         calculate D2E/DX2 analytically  !
 ! D38   D(6,2,3,17)           108.2344         calculate D2E/DX2 analytically  !
 ! D39   D(6,2,3,18)           -10.0846         calculate D2E/DX2 analytically  !
 ! D40   D(20,2,3,4)           105.7191         calculate D2E/DX2 analytically  !
 ! D41   D(20,2,3,17)          -14.2557         calculate D2E/DX2 analytically  !
 ! D42   D(20,2,3,18)         -132.5748         calculate D2E/DX2 analytically  !
 ! D43   D(1,2,6,7)            -73.4973         calculate D2E/DX2 analytically  !
 ! D44   D(1,2,6,11)           104.6572         calculate D2E/DX2 analytically  !
 ! D45   D(3,2,6,7)             46.0836         calculate D2E/DX2 analytically  !
 ! D46   D(3,2,6,11)          -135.762          calculate D2E/DX2 analytically  !
 ! D47   D(20,2,6,7)           169.0795         calculate D2E/DX2 analytically  !
 ! D48   D(20,2,6,11)          -12.7661         calculate D2E/DX2 analytically  !
 ! D49   D(2,3,4,5)            -16.9822         calculate D2E/DX2 analytically  !
 ! D50   D(2,3,4,15)          -138.2917         calculate D2E/DX2 analytically  !
 ! D51   D(2,3,4,16)           101.1876         calculate D2E/DX2 analytically  !
 ! D52   D(17,3,4,5)           101.4349         calculate D2E/DX2 analytically  !
 ! D53   D(17,3,4,15)          -19.8745         calculate D2E/DX2 analytically  !
 ! D54   D(17,3,4,16)         -140.3953         calculate D2E/DX2 analytically  !
 ! D55   D(18,3,4,5)          -138.9982         calculate D2E/DX2 analytically  !
 ! D56   D(18,3,4,15)           99.6924         calculate D2E/DX2 analytically  !
 ! D57   D(18,3,4,16)          -20.8284         calculate D2E/DX2 analytically  !
 ! D58   D(3,4,5,1)             37.0057         calculate D2E/DX2 analytically  !
 ! D59   D(3,4,5,14)           156.109          calculate D2E/DX2 analytically  !
 ! D60   D(3,4,5,19)           -80.7308         calculate D2E/DX2 analytically  !
 ! D61   D(15,4,5,1)           158.7736         calculate D2E/DX2 analytically  !
 ! D62   D(15,4,5,14)          -82.1231         calculate D2E/DX2 analytically  !
 ! D63   D(15,4,5,19)           41.0371         calculate D2E/DX2 analytically  !
 ! D64   D(16,4,5,1)           -81.1714         calculate D2E/DX2 analytically  !
 ! D65   D(16,4,5,14)           37.9319         calculate D2E/DX2 analytically  !
 ! D66   D(16,4,5,19)          161.0921         calculate D2E/DX2 analytically  !
 ! D67   D(2,6,7,8)            176.862          calculate D2E/DX2 analytically  !
 ! D68   D(2,6,7,21)            -3.6591         calculate D2E/DX2 analytically  !
 ! D69   D(11,6,7,8)            -1.39           calculate D2E/DX2 analytically  !
 ! D70   D(11,6,7,21)          178.0889         calculate D2E/DX2 analytically  !
 ! D71   D(2,6,11,10)         -177.6286         calculate D2E/DX2 analytically  !
 ! D72   D(2,6,11,24)            2.5006         calculate D2E/DX2 analytically  !
 ! D73   D(7,6,11,10)            0.5841         calculate D2E/DX2 analytically  !
 ! D74   D(7,6,11,24)         -179.2866         calculate D2E/DX2 analytically  !
 ! D75   D(6,7,8,9)              1.0302         calculate D2E/DX2 analytically  !
 ! D76   D(6,7,8,26)          -176.0189         calculate D2E/DX2 analytically  !
 ! D77   D(21,7,8,9)          -178.4691         calculate D2E/DX2 analytically  !
 ! D78   D(21,7,8,26)            4.4817         calculate D2E/DX2 analytically  !
 ! D79   D(7,8,9,10)             0.1453         calculate D2E/DX2 analytically  !
 ! D80   D(7,8,9,22)           179.9294         calculate D2E/DX2 analytically  !
 ! D81   D(26,8,9,10)          176.1273         calculate D2E/DX2 analytically  !
 ! D82   D(26,8,9,22)           -4.0886         calculate D2E/DX2 analytically  !
 ! D83   D(7,8,26,12)           -2.7658         calculate D2E/DX2 analytically  !
 ! D84   D(9,8,26,12)         -179.0759         calculate D2E/DX2 analytically  !
 ! D85   D(8,9,10,11)           -0.8745         calculate D2E/DX2 analytically  !
 ! D86   D(8,9,10,23)          179.3371         calculate D2E/DX2 analytically  !
 ! D87   D(22,9,10,11)         179.3508         calculate D2E/DX2 analytically  !
 ! D88   D(22,9,10,23)          -0.4376         calculate D2E/DX2 analytically  !
 ! D89   D(9,10,11,6)            0.467          calculate D2E/DX2 analytically  !
 ! D90   D(9,10,11,24)        -179.6622         calculate D2E/DX2 analytically  !
 ! D91   D(23,10,11,6)        -179.747          calculate D2E/DX2 analytically  !
 ! D92   D(23,10,11,24)          0.1238         calculate D2E/DX2 analytically  !
 ! D93   D(29,12,26,8)          42.2145         calculate D2E/DX2 analytically  !
 ! D94   D(30,12,26,8)         173.7011         calculate D2E/DX2 analytically  !
 ! D95   D(41,12,26,8)         -55.2412         calculate D2E/DX2 analytically  !
 ! D96   D(26,12,31,32)       -111.4186         calculate D2E/DX2 analytically  !
 ! D97   D(26,12,31,33)          6.1738         calculate D2E/DX2 analytically  !
 ! D98   D(30,12,31,32)        122.0379         calculate D2E/DX2 analytically  !
 ! D99   D(30,12,31,33)       -120.3696         calculate D2E/DX2 analytically  !
 ! D100  D(41,12,31,32)        -11.7193         calculate D2E/DX2 analytically  !
 ! D101  D(41,12,31,33)        105.8731         calculate D2E/DX2 analytically  !
 ! D102  D(26,12,41,40)         74.7586         calculate D2E/DX2 analytically  !
 ! D103  D(29,12,41,40)        -33.7559         calculate D2E/DX2 analytically  !
 ! D104  D(30,12,41,40)       -165.7635         calculate D2E/DX2 analytically  !
 ! D105  D(27,13,31,29)        -85.1676         calculate D2E/DX2 analytically  !
 ! D106  D(27,13,31,32)         35.0278         calculate D2E/DX2 analytically  !
 ! D107  D(28,13,31,29)        131.0239         calculate D2E/DX2 analytically  !
 ! D108  D(28,13,31,32)       -108.7807         calculate D2E/DX2 analytically  !
 ! D109  D(29,31,37,38)         10.7946         calculate D2E/DX2 analytically  !
 ! D110  D(29,31,37,39)       -109.651          calculate D2E/DX2 analytically  !
 ! D111  D(33,31,37,38)       -109.0225         calculate D2E/DX2 analytically  !
 ! D112  D(33,31,37,39)        130.5319         calculate D2E/DX2 analytically  !
 ! D113  D(32,37,38,40)         20.3499         calculate D2E/DX2 analytically  !
 ! D114  D(39,37,38,40)        150.1782         calculate D2E/DX2 analytically  !
 ! D115  D(37,38,40,41)        -40.7417         calculate D2E/DX2 analytically  !
 ! D116  D(37,38,40,42)       -174.8493         calculate D2E/DX2 analytically  !
 ! D117  D(38,40,41,12)         49.5622         calculate D2E/DX2 analytically  !
 ! D118  D(42,40,41,12)       -166.7646         calculate D2E/DX2 analytically  !
 --------------------------------------------------------------------------------
 Trust Radius=5.00D-02 FncErr=1.00D-07 GrdErr=1.00D-06 EigMax=2.50D+02 EigMin=1.00D-04
 Number of steps in this run=    252 maximum allowed number of steps=    252.
 Search for a saddle point of order  1.
 GradGradGradGradGradGradGradGradGradGradGradGradGradGradGradGradGradGrad

                          Input orientation:                          
 ---------------------------------------------------------------------
 Center     Atomic      Atomic             Coordinates (Angstroms)
 Number     Number       Type             X           Y           Z
 ---------------------------------------------------------------------
      1          7           0        2.115395   -0.779254    0.424955
      2          6           0        1.816782   -0.040274   -0.837465
      3          6           0        1.142156   -1.089065   -1.757186
      4          6           0        1.304460   -2.437910   -1.026978
      5          6           0        2.398952   -2.163309   -0.003660
      6          6           0        1.022272    1.213128   -0.557784
      7          6           0       -0.324179    1.131738   -0.210147
      8          7           0       -1.077890    2.183576    0.109880
      9          6           0       -0.516752    3.398458    0.077915
     10          6           0        0.812539    3.595349   -0.277741
     11          6           0        1.591905    2.484633   -0.594801
     12          8           0       -3.312223    0.886626    0.725133
     13          8           0        0.244523   -0.872530    2.127442
     14          1           0        2.379963   -2.833589    0.864081
     15          1           0        1.571600   -3.255078   -1.703970
     16          1           0        0.370548   -2.713578   -0.522186
     17          1           0        1.646776   -1.094178   -2.728986
     18          1           0        0.089608   -0.855882   -1.946466
     19          1           0        3.401020   -2.215518   -0.461216
     20          1           0        2.781988    0.257446   -1.278419
     21          1           0       -0.828036    0.165030   -0.195994
     22          1           0       -1.157719    4.238932    0.343239
     23          1           0        1.228075    4.600787   -0.301742
     24          1           0        2.639521    2.609836   -0.871954
     25          6           0        3.202844   -0.171193    1.196102
     26          1           0       -2.595037    1.568913    0.559463
     27          1           0        1.026698   -0.839329    1.349404
     28          1           0        0.569905   -1.259632    2.943638
     29          1           0       -2.582390   -0.449280    1.469668
     30          1           0       -4.054792    1.331769    1.141112
     31          8           0       -2.084242   -1.271927    1.710604
     32          1           0       -2.199575   -1.919889    0.956305
     33          1           0       -0.971121   -1.083100    1.908550
     34          1           0        3.391829   -0.769737    2.095018
     35          1           0        2.914036    0.839847    1.505291
     36          1           0        4.130328   -0.120655    0.605072
     37          8           0       -2.251956   -2.724397   -0.435541
     38          1           0       -2.614873   -2.066167   -1.066431
     39          1           0       -2.767225   -3.528816   -0.534478
     40          8           0       -3.027331   -0.489459   -1.685823
     41          1           0       -3.366343    0.084563   -0.976873
     42          1           0       -3.523365   -0.278783   -2.480017
 ---------------------------------------------------------------------
                    Distance matrix (angstroms):
                    1          2          3          4          5
     1  N    0.000000
     2  C    1.492972   0.000000
     3  C    2.409339   1.549506   0.000000
     4  C    2.348801   2.459075   1.542378   0.000000
     5  C    1.476389   2.354024   2.410060   1.523318   0.000000
     6  C    2.475940   1.510127   2.598659   3.691863   3.688174
     7  C    3.163347   2.520090   3.078219   4.007751   4.279651
     8  N    4.367460   3.771220   4.373182   5.322234   5.567471
     9  C    4.949941   4.255371   5.124201   6.212954   6.280226
    10  C    4.618264   3.813076   4.923529   6.099472   5.979462
    11  C    3.459321   2.546490   3.784803   4.949831   4.754381
    12  O    5.685446   5.441282   5.468707   5.952831   6.515425
    13  O    2.531269   3.457647   3.992865   3.677533   3.293823
    14  H    2.117338   3.318891   3.383278   2.211193   1.096636
    15  H    3.310248   3.338549   2.208816   1.094279   2.183466
    16  H    2.771854   3.055740   2.181661   1.096813   2.164737
    17  H    3.204079   2.171973   1.095017   2.195365   3.022617
    18  H    3.119827   2.208671   1.094559   2.196392   3.288910
    19  H    2.121552   2.717179   2.837411   2.182913   1.102825
    20  H    2.102517   1.102134   2.175169   3.084032   2.762568
    21  H    3.152941   2.729230   2.809223   3.466031   3.983918
    22  H    5.991840   5.343531   6.171609   7.247071   7.332049
    23  H    5.500933   4.708824   5.873680   7.076373   6.871157
    24  H    3.666417   2.775099   4.087494   5.223616   4.857440
    25  C    1.465248   2.464488   3.716293   3.699183   2.460528
    26  H    5.264993   4.899494   5.137930   5.811842   6.259913
    27  H    1.429502   2.458682   3.118750   2.877465   2.338116
    28  H    2.993838   4.163926   4.738598   4.206388   3.584496
    29  H    4.823846   4.984262   4.969321   5.029463   5.470133
    30  H    6.560526   6.346074   6.424083   6.901643   7.428114
    31  O    4.419567   4.819503   4.740111   4.509675   4.881833
    32  H    4.494702   4.783481   4.384115   4.059559   4.703960
    33  H    3.438017   4.049752   4.231264   3.953619   4.022535
    34  H    2.102019   3.407689   4.472413   4.109351   2.707821
    35  H    2.103911   2.732597   4.183780   4.443739   3.400175
    36  H    2.127475   2.727612   3.930299   4.002348   2.746025
    37  O    4.857756   4.890878   3.992625   3.616624   4.704496
    38  H    5.124043   4.878138   3.942986   3.937121   5.126145
    39  H    5.685119   5.768435   4.767668   4.243966   5.369894
    40  O    5.566596   4.938310   4.212985   4.795305   5.922499
    41  H    5.723701   5.186502   4.723648   5.308652   6.264080
    42  H    6.362778   5.592140   4.790212   5.484619   6.690114
                    6          7          8          9         10
     6  C    0.000000
     7  C    1.392985   0.000000
     8  N    2.407950   1.332989   0.000000
     9  C    2.747431   2.293051   1.338595   0.000000
    10  C    2.407777   2.714052   2.391041   1.390062   0.000000
    11  C    1.393764   2.376902   2.777592   2.394589   1.393423
    12  O    4.532144   3.140579   2.655722   3.813509   5.035534
    13  O    3.487879   3.131267   3.893471   4.798066   5.105829
    14  H    4.498994   4.918350   6.139830   6.917183   6.715044
    15  H    4.645468   5.006959   6.315759   7.197629   7.038370
    16  H    3.980582   3.920009   5.145833   6.205192   6.329113
    17  H    3.229208   3.896654   5.121195   5.722178   5.356885
    18  H    2.660658   2.671452   3.850963   4.750284   4.808402
    19  H    4.174132   5.014406   6.303873   6.867046   6.363967
    20  H    2.128202   3.399098   4.531667   4.752608   4.002709
    21  H    2.157091   1.090228   2.056821   3.259905   3.803322
    22  H    3.836625   3.264304   2.070101   1.089785   2.163731
    23  H    3.403549   3.801603   3.365979   2.152709   1.088187
    24  H    2.159859   3.377318   3.868442   3.389135   2.159210
    25  C    3.122075   4.014356   5.004947   5.275239   4.698150
    26  H    3.802598   2.437256   1.697548   2.810408   4.052028
    27  H    2.801779   2.853449   3.886343   4.685911   4.728619
    28  H    4.310352   4.057634   4.754061   5.575930   5.831552
    29  H    4.457325   3.228144   3.323323   4.583549   5.562194
    30  H    5.355082   3.972831   3.263581   4.233122   5.552283
    31  O    4.579466   3.544674   3.938980   5.189913   6.002935
    32  H    4.742210   3.766981   4.337400   5.646971   6.404182
    33  H    3.915237   3.132558   3.730655   4.862308   5.463442
    34  H    4.072335   4.768449   5.713249   6.059667   5.597919
    35  H    2.823896   3.676134   4.437145   4.511563   3.897215
    36  H    3.576482   4.698479   5.716663   5.852982   5.059226
    37  O    5.122462   4.317048   5.075836   6.384663   7.025327
    38  H    4.923548   4.025804   4.669726   5.964375   6.664979
    39  H    6.070162   5.272042   5.991700   7.309362   7.977114
    40  O    4.535478   3.480364   3.764304   4.952744   5.780394
    41  H    4.550740   3.307447   3.289970   4.496070   5.502496
    42  H    5.155928   4.168533   4.330257   5.394890   6.217635
                   11         12         13         14         15
    11  C    0.000000
    12  O    5.324127   0.000000
    13  O    4.527316   4.208508   0.000000
    14  H    5.570714   6.801492   3.162584   0.000000
    15  H    5.845935   6.848794   4.702913   2.725067   0.000000
    16  H    5.340261   5.299064   3.228911   2.444154   1.769848
    17  H    4.167211   6.359732   5.059677   4.058724   2.392864
    18  H    3.904220   4.663285   4.076886   4.129918   2.830414
    19  H    5.038071   7.489883   4.297469   1.783531   2.443747
    20  H    2.616103   6.445890   4.394936   3.782384   3.739513
    21  H    3.375755   2.745972   2.761389   4.517381   4.441777
    22  H    3.393806   4.003209   5.592558   7.925088   8.234102
    23  H    2.167110   5.955147   6.068402   7.612880   7.987419
    24  H    1.090866   6.398703   5.182592   5.719446   6.019130
    25  C    3.585508   6.617166   3.179769   2.806372   4.536708
    26  H    4.438620   1.003652   4.059840   6.650221   6.764236
    27  H    3.892058   4.711143   1.103741   2.458442   3.931393
    28  H    5.252100   4.959749   0.960155   3.174619   5.156109
    29  H    5.504055   1.694589   2.933129   5.538647   5.932968
    30  H    6.018943   0.960520   4.931115   7.670269   7.796791
    31  O    5.739398   2.671786   2.399254   4.804635   5.381207
    32  H    6.015070   3.027863   2.905536   4.670709   4.804327
    33  H    5.056144   3.280405   1.253014   3.922358   4.922725
    34  H    4.589747   7.040201   3.149151   2.607406   4.891060
    35  H    2.977203   6.275120   3.231966   3.767030   5.373072
    36  H    3.830250   7.511364   4.240567   3.238962   4.658688
    37  O    6.475695   3.938378   4.028734   4.812028   4.063264
    38  H    6.215239   3.523490   4.449915   5.409640   4.398468
    39  H    7.427464   4.623826   4.817914   5.378927   4.502005
    40  O    5.601151   2.790606   5.039123   6.421510   5.366483
    41  H    5.521824   1.882301   4.857072   6.702593   6.005427
    42  H    6.111996   3.416979   5.981488   7.249780   5.951407
                   16         17         18         19         20
    16  H    0.000000
    17  H    3.020129   0.000000
    18  H    2.357655   1.758947   0.000000
    19  H    3.071733   3.078564   3.875568   0.000000
    20  H    3.900502   2.284675   2.989096   2.677045   0.000000
    21  H    3.135186   3.758503   2.224519   4.860274   3.769941
    22  H    7.170910   6.763566   5.723260   7.942869   5.831235
    23  H    7.367760   6.204793   5.811752   7.156056   4.715205
    24  H    5.797354   4.260731   4.434843   4.902308   2.391495
    25  C    4.175899   4.321986   4.476245   2.639174   2.546391
    26  H    5.320187   5.991571   4.400753   7.163547   5.831823
    27  H    2.728771   4.133123   3.426539   3.287803   3.345058
    28  H    3.763727   5.776304   4.930194   4.530117   5.002060
    29  H    4.220707   5.994200   4.356015   6.530628   6.068607
    30  H    6.222140   7.305529   5.612041   8.410698   7.331430
    31  O    3.617969   5.801900   4.274679   5.974551   5.912143
    32  H    3.069432   5.390509   3.846888   5.784758   5.877989
    33  H    3.219784   5.325434   4.004737   5.100370   5.102907
    34  H    4.444819   5.140184   5.219739   2.936784   3.578699
    35  H    4.817346   4.824469   4.771532   3.666000   2.847046
    36  H    4.704243   4.269862   4.835114   2.461161   2.347024
    37  O    2.623957   4.808078   3.355170   5.675892   5.911212
    38  H    3.102915   4.676591   3.090869   6.048104   5.879645
    39  H    3.241972   5.497884   4.159301   6.306930   6.758920
    40  O    4.224493   4.827127   3.149208   6.767765   5.871289
    41  H    4.690489   5.439733   3.710545   7.166134   6.158148
    42  H    4.992383   5.239963   3.697471   7.468173   6.441184
                   21         22         23         24         25
    21  H    0.000000
    22  H    4.122638   0.000000
    23  H    4.890267   2.497790   0.000000
    24  H    4.296272   4.306934   2.506234   0.000000
    25  C    4.277730   6.260279   5.377271   3.511169   0.000000
    26  H    2.379894   3.040006   4.954808   5.525674   6.086765
    27  H    2.614772   5.618966   5.688734   4.408216   2.281561
    28  H    3.720375   6.323050   6.731284   5.815052   3.342297
    29  H    2.495910   5.027709   6.569681   6.489202   5.798371
    30  H    3.682538   4.181056   6.377852   7.106315   7.411828
    31  O    2.697780   5.753060   7.036317   6.637140   5.424906
    32  H    2.748781   6.276336   7.473331   6.875885   5.683447
    33  H    2.451001   5.550589   6.482933   5.865638   4.331413
    34  H    4.891808   6.989555   6.266484   4.559650   1.096367
    35  H    4.165675   5.429856   4.500278   2.976493   1.095997
    36  H    5.030775   6.858425   5.615817   3.443790   1.100953
    37  O    3.230127   7.091671   8.110909   7.250589   6.239868
    38  H    2.988091   6.623046   7.733128   7.036440   6.523482
    39  H    4.185633   7.981153   9.061293   8.187175   7.064720
    40  O    2.735844   5.474507   6.777519   6.510086   6.871817
    41  H    2.656925   4.886665   6.477712   6.516012   6.923976
    42  H    3.560692   5.828963   7.150613   6.993651   7.665984
                   26         27         28         29         30
    26  H    0.000000
    27  H    4.420475   0.000000
    28  H    4.868451   1.710817   0.000000
    29  H    2.213986   3.632096   3.572985   0.000000
    30  H    1.589163   5.529791   5.599311   2.334106   0.000000
    31  O    3.107476   3.161575   2.926606   0.991438   3.314607
    32  H    3.533499   3.425051   3.472096   1.603989   3.748235
    33  H    3.389736   2.088863   1.864761   1.786206   3.991188
    34  H    6.608311   2.480852   2.987207   6.015401   7.796052
    35  H    5.637022   2.531003   3.460001   5.645690   6.995654
    36  H    6.934497   3.271550   4.409396   6.776142   8.330250
    37  O    4.420435   4.181995   4.639751   2.985827   4.710471
    38  H    3.982177   4.538990   5.184010   3.007853   4.300300
    39  H    5.216627   5.017589   5.327563   3.678900   5.300068
    40  O    3.076537   5.076432   5.913136   3.186959   3.516264
    41  H    2.271241   5.056081   5.715883   2.623954   2.552517
    42  H    3.676168   5.973420   6.865345   4.063805   3.998608
                   31         32         33         34         35
    31  O    0.000000
    32  H    1.001061   0.000000
    33  H    1.146245   1.765244   0.000000
    34  H    5.512470   5.820938   4.378162   0.000000
    35  H    5.429966   5.836655   4.353710   1.779557   0.000000
    36  H    6.416269   6.590014   5.352582   1.785113   1.792296
    37  O    2.596870   1.608481   3.135149   6.486658   6.569485
    38  H    2.936718   2.070104   3.538199   6.910569   6.754814
    39  H    3.255827   2.265680   3.895626   7.242977   7.451349
    40  O    3.610733   3.116432   4.183291   7.455128   6.873871
    41  H    3.272061   3.019330   3.927619   7.472565   6.795201
    42  H    4.540783   4.031620   5.140077   8.306136   7.653375
                   36         37         38         39         40
    36  H    0.000000
    37  O    6.971076   0.000000
    38  H    7.216417   0.981324   0.000000
    39  H    7.777556   0.960406   1.563818   0.000000
    40  O    7.524380   2.675698   1.743495   3.260512   0.000000
    41  H    7.664512   3.070042   2.279993   3.689331   0.973160
    42  H    8.253593   3.431820   2.453227   3.862588   0.959780
                   41         42
    41  H    0.000000
    42  H    1.554387   0.000000
 Stoichiometry    C10H25N2O5(1+)
 Framework group  C1[X(C10H25N2O5)]
 Deg. of freedom   120
 Full point group                 C1      NOp   1
 Largest Abelian subgroup         C1      NOp   1
 Largest concise Abelian subgroup C1      NOp   1
                         Standard orientation:                         
 ---------------------------------------------------------------------
 Center     Atomic      Atomic             Coordinates (Angstroms)
 Number     Number       Type             X           Y           Z
 ---------------------------------------------------------------------
      1          7           0        2.115395   -0.779255    0.424955
      2          6           0        1.816782   -0.040275   -0.837465
      3          6           0        1.142156   -1.089065   -1.757186
      4          6           0        1.304459   -2.437911   -1.026978
      5          6           0        2.398951   -2.163310   -0.003660
      6          6           0        1.022273    1.213128   -0.557784
      7          6           0       -0.324179    1.131738   -0.210147
      8          7           0       -1.077889    2.183576    0.109880
      9          6           0       -0.516751    3.398458    0.077915
     10          6           0        0.812541    3.595349   -0.277741
     11          6           0        1.591906    2.484632   -0.594801
     12          8           0       -3.312223    0.886627    0.725133
     13          8           0        0.244523   -0.872530    2.127442
     14          1           0        2.379962   -2.833590    0.864081
     15          1           0        1.571599   -3.255079   -1.703970
     16          1           0        0.370547   -2.713578   -0.522186
     17          1           0        1.646776   -1.094179   -2.728986
     18          1           0        0.089608   -0.855882   -1.946466
     19          1           0        3.401019   -2.215519   -0.461216
     20          1           0        2.781988    0.257445   -1.278419
     21          1           0       -0.828036    0.165030   -0.195994
     22          1           0       -1.157717    4.238932    0.343239
     23          1           0        1.228077    4.600786   -0.301742
     24          1           0        2.639522    2.609835   -0.871954
     25          6           0        3.202844   -0.171194    1.196102
     26          1           0       -2.595036    1.568914    0.559463
     27          1           0        1.026698   -0.839329    1.349404
     28          1           0        0.569905   -1.259632    2.943638
     29          1           0       -2.582390   -0.449279    1.469668
     30          1           0       -4.054791    1.331771    1.141112
     31          8           0       -2.084242   -1.271926    1.710604
     32          1           0       -2.199576   -1.919888    0.956305
     33          1           0       -0.971121   -1.083100    1.908550
     34          1           0        3.391829   -0.769738    2.095018
     35          1           0        2.914036    0.839846    1.505291
     36          1           0        4.130328   -0.120657    0.605072
     37          8           0       -2.251957   -2.724396   -0.435541
     38          1           0       -2.614874   -2.066166   -1.066431
     39          1           0       -2.767226   -3.528815   -0.534478
     40          8           0       -3.027331   -0.489458   -1.685823
     41          1           0       -3.366343    0.084564   -0.976873
     42          1           0       -3.523365   -0.278782   -2.480017
 ---------------------------------------------------------------------
 Rotational constants (GHZ):           0.4153820           0.3753383           0.2617825
 Standard basis: Aug-CC-pVDZ (5D, 7F)
 There are   650 symmetry adapted cartesian basis functions of A   symmetry.
 There are   616 symmetry adapted basis functions of A   symmetry.
   616 basis functions,  1006 primitive gaussians,   650 cartesian basis functions
    69 alpha electrons       69 beta electrons
       nuclear repulsion energy      1439.3045150718 Hartrees.
 NAtoms=   42 NActive=   42 NUniq=   42 SFac= 1.00D+00 NAtFMM=   60 NAOKFM=F Big=F
 Integral buffers will be    131072 words long.
 Raffenetti 2 integral format.
 Two-electron integral symmetry is turned on.
 Nuclear repulsion after empirical dispersion term =     1439.2680885233 Hartrees.
 One-electron integrals computed using PRISM.
 NBasis=   616 RedAO= T EigKep=  1.74D-06  NBF=   616
 NBsUse=   615 1.00D-06 EigRej=  9.76D-07 NBFU=   615
 ExpMin= 2.97D-02 ExpMax= 1.17D+04 ExpMxC= 4.01D+02 IAcc=3 IRadAn=         5 AccDes= 0.00D+00
 Harris functional with IExCor= 4639 and IRadAn=       5 diagonalized for initial guess.
 HarFok:  IExCor= 4639 AccDes= 0.00D+00 IRadAn=         5 IDoV= 1 UseB2=F ITyADJ=14
 ICtDFT=  3500011 ScaDFX=  1.000000  1.000000  1.000000  1.000000
 FoFCou: FMM=F IPFlag=           0 FMFlag=      100000 FMFlg1=           0
         NFxFlg=           0 DoJE=T BraDBF=F KetDBF=T FulRan=T
         wScrn=  0.000000 ICntrl=       500 IOpCl=  0 I1Cent=   200000004 NGrid=           0
         NMat0=    1 NMatS0=      1 NMatT0=    0 NMatD0=    1 NMtDS0=    0 NMtDT0=    0
 Petite list used in FoFCou.
 Requested convergence on RMS density matrix=1.00D-08 within 128 cycles.
 Requested convergence on MAX density matrix=1.00D-06.
 Requested convergence on             energy=1.00D-06.
 No special actions if energy rises.
 SCF Done:  E(RwB97XD) =  -881.462762278     A.U. after   14 cycles
            NFock= 14  Conv=0.62D-08     -V/T= 2.0061
 DoSCS=F DFT=T ScalE2(SS,OS)=  1.000000  1.000000
 Range of M.O.s used for correlation:     1   615
 NBasis=   616 NAE=    69 NBE=    69 NFC=     0 NFV=     0
 NROrb=    615 NOA=    69 NOB=    69 NVA=   546 NVB=   546

 **** Warning!!: The largest alpha MO coefficient is  0.10915515D+03

 Symmetrizing basis deriv contribution to polar:
 IMax=3 JMax=2 DiffMx= 0.00D+00
 G2DrvN: will do    43 centers at a time, making    1 passes.
 Calling FoFCou, ICntrl=  3107 FMM=F I1Cent=   0 AccDes= 0.00D+00.
 End of G2Drv F.D. properties file   721 does not exist.
 End of G2Drv F.D. properties file   722 does not exist.
 End of G2Drv F.D. properties file   788 does not exist.
          IDoAtm=111111111111111111111111111111111111111111
          Differentiating once with respect to electric field.
                with respect to dipole field.
          Differentiating once with respect to nuclear coordinates.
 CalDSu exits because no D1Ps are significant.
          There are   129 degrees of freedom in the 1st order CPHF.  IDoFFX=6 NUNeed=     3.
    126 vectors produced by pass  0 Test12= 3.77D-14 1.00D-09 XBig12= 7.92D+01 4.13D+00.
 AX will form   126 AO Fock derivatives at one time.
    126 vectors produced by pass  1 Test12= 3.77D-14 1.00D-09 XBig12= 1.19D+01 8.88D-01.
    126 vectors produced by pass  2 Test12= 3.77D-14 1.00D-09 XBig12= 2.49D-01 8.54D-02.
    126 vectors produced by pass  3 Test12= 3.77D-14 1.00D-09 XBig12= 2.01D-03 5.01D-03.
    126 vectors produced by pass  4 Test12= 3.77D-14 1.00D-09 XBig12= 1.64D-05 4.01D-04.
    126 vectors produced by pass  5 Test12= 3.77D-14 1.00D-09 XBig12= 1.17D-07 2.54D-05.
    124 vectors produced by pass  6 Test12= 3.77D-14 1.00D-09 XBig12= 6.96D-10 1.71D-06.
     40 vectors produced by pass  7 Test12= 3.77D-14 1.00D-09 XBig12= 3.30D-12 9.84D-08.
      3 vectors produced by pass  8 Test12= 3.77D-14 1.00D-09 XBig12= 1.92D-14 7.85D-09.
      3 vectors produced by pass  9 Test12= 3.77D-14 1.00D-09 XBig12= 8.78D-16 2.59D-09.
 InvSVY:  IOpt=1 It=  1 EMax= 1.60D-14
 Solved reduced A of dimension   926 with   129 vectors.
 Isotropic polarizability for W=    0.000000      170.84 Bohr**3.
 End of Minotr F.D. properties file   721 does not exist.
 End of Minotr F.D. properties file   722 does not exist.
 End of Minotr F.D. properties file   788 does not exist.

 **********************************************************************

            Population analysis using the SCF density.

 **********************************************************************

 Orbital symmetries:
       Occupied  (A) (A) (A) (A) (A) (A) (A) (A) (A) (A) (A) (A)
                 (A) (A) (A) (A) (A) (A) (A) (A) (A) (A) (A) (A)
                 (A) (A) (A) (A) (A) (A) (A) (A) (A) (A) (A) (A)
                 (A) (A) (A) (A) (A) (A) (A) (A) (A) (A) (A) (A)
                 (A) (A) (A) (A) (A) (A) (A) (A) (A) (A) (A) (A)
                 (A) (A) (A) (A) (A) (A) (A) (A) (A)
       Virtual   (A) (A) (A) (A) (A) (A) (A) (A) (A) (A) (A) (A)
                 (A) (A) (A) (A) (A) (A) (A) (A) (A) (A) (A) (A)
                 (A) (A) (A) (A) (A) (A) (A) (A) (A) (A) (A) (A)
                 (A) (A) (A) (A) (A) (A) (A) (A) (A) (A) (A) (A)
                 (A) (A) (A) (A) (A) (A) (A) (A) (A) (A) (A) (A)
                 (A) (A) (A) (A) (A) (A) (A) (A) (A) (A) (A) (A)
                 (A) (A) (A) (A) (A) (A) (A) (A) (A) (A) (A) (A)
                 (A) (A) (A) (A) (A) (A) (A) (A) (A) (A) (A) (A)
                 (A) (A) (A) (A) (A) (A) (A) (A) (A) (A) (A) (A)
                 (A) (A) (A) (A) (A) (A) (A) (A) (A) (A) (A) (A)
                 (A) (A) (A) (A) (A) (A) (A) (A) (A) (A) (A) (A)
                 (A) (A) (A) (A) (A) (A) (A) (A) (A) (A) (A) (A)
                 (A) (A) (A) (A) (A) (A) (A) (A) (A) (A) (A) (A)
                 (A) (A) (A) (A) (A) (A) (A) (A) (A) (A) (A) (A)
                 (A) (A) (A) (A) (A) (A) (A) (A) (A) (A) (A) (A)
                 (A) (A) (A) (A) (A) (A) (A) (A) (A) (A) (A) (A)
                 (A) (A) (A) (A) (A) (A) (A) (A) (A) (A) (A) (A)
                 (A) (A) (A) (A) (A) (A) (A) (A) (A) (A) (A) (A)
                 (A) (A) (A) (A) (A) (A) (A) (A) (A) (A) (A) (A)
                 (A) (A) (A) (A) (A) (A) (A) (A) (A) (A) (A) (A)
                 (A) (A) (A) (A) (A) (A) (A) (A) (A) (A) (A) (A)
                 (A) (A) (A) (A) (A) (A) (A) (A) (A) (A) (A) (A)
                 (A) (A) (A) (A) (A) (A) (A) (A) (A) (A) (A) (A)
                 (A) (A) (A) (A) (A) (A) (A) (A) (A) (A) (A) (A)
                 (A) (A) (A) (A) (A) (A) (A) (A) (A) (A) (A) (A)
                 (A) (A) (A) (A) (A) (A) (A) (A) (A) (A) (A) (A)
                 (A) (A) (A) (A) (A) (A) (A) (A) (A) (A) (A) (A)
                 (A) (A) (A) (A) (A) (A) (A) (A) (A) (A) (A) (A)
                 (A) (A) (A) (A) (A) (A) (A) (A) (A) (A) (A) (A)
                 (A) (A) (A) (A) (A) (A) (A) (A) (A) (A) (A) (A)
                 (A) (A) (A) (A) (A) (A) (A) (A) (A) (A) (A) (A)
                 (A) (A) (A) (A) (A) (A) (A) (A) (A) (A) (A) (A)
                 (A) (A) (A) (A) (A) (A) (A) (A) (A) (A) (A) (A)
                 (A) (A) (A) (A) (A) (A) (A) (A) (A) (A) (A) (A)
                 (A) (A) (A) (A) (A) (A) (A) (A) (A) (A) (A) (A)
                 (A) (A) (A) (A) (A) (A) (A) (A) (A) (A) (A) (A)
                 (A) (A) (A) (A) (A) (A) (A) (A) (A) (A) (A) (A)
                 (A) (A) (A) (A) (A) (A) (A) (A) (A) (A) (A) (A)
                 (A) (A) (A) (A) (A) (A) (A) (A) (A) (A) (A) (A)
                 (A) (A) (A) (A) (A) (A) (A) (A) (A) (A) (A) (A)
                 (A) (A) (A) (A) (A) (A) (A) (A) (A) (A) (A) (A)
                 (A) (A) (A) (A) (A) (A) (A) (A) (A) (A) (A) (A)
                 (A) (A) (A) (A) (A) (A) (A) (A) (A) (A) (A) (A)
                 (A) (A) (A) (A) (A) (A) (A) (A) (A) (A) (A) (A)
                 (A) (A) (A) (A) (A) (A) (A) (A) (A) (A) (A) (A)
                 (A) (A) (A) (A) (A) (A)
 The electronic state is 1-A.
 Alpha  occ. eigenvalues --  -19.42797 -19.40556 -19.40185 -19.40030 -19.39682
 Alpha  occ. eigenvalues --  -14.60283 -14.58622 -10.46147 -10.46041 -10.45874
 Alpha  occ. eigenvalues --  -10.44298 -10.44238 -10.44137 -10.43847 -10.42920
 Alpha  occ. eigenvalues --  -10.41149 -10.40684  -1.29055  -1.25061  -1.24577
 Alpha  occ. eigenvalues --   -1.23929  -1.23096  -1.18659  -1.17807  -1.04399
 Alpha  occ. eigenvalues --   -1.01394  -0.99961  -0.94437  -0.90172  -0.85955
 Alpha  occ. eigenvalues --   -0.84908  -0.81341  -0.79963  -0.78856  -0.78123
 Alpha  occ. eigenvalues --   -0.77241  -0.76011  -0.75253  -0.74405  -0.72870
 Alpha  occ. eigenvalues --   -0.71505  -0.70284  -0.69318  -0.66689  -0.66060
 Alpha  occ. eigenvalues --   -0.65199  -0.64104  -0.62685  -0.62224  -0.62023
 Alpha  occ. eigenvalues --   -0.61695  -0.60437  -0.60006  -0.59365  -0.59292
 Alpha  occ. eigenvalues --   -0.57488  -0.57267  -0.56281  -0.54824  -0.54610
 Alpha  occ. eigenvalues --   -0.54266  -0.54186  -0.53891  -0.53058  -0.52048
 Alpha  occ. eigenvalues --   -0.49213  -0.48491  -0.46897  -0.45822
 Alpha virt. eigenvalues --   -0.09002  -0.07701  -0.06502  -0.05416  -0.04723
 Alpha virt. eigenvalues --   -0.04608  -0.03439  -0.03243  -0.02864  -0.02520
 Alpha virt. eigenvalues --   -0.01979  -0.01293  -0.00887  -0.00700  -0.00372
 Alpha virt. eigenvalues --   -0.00068   0.00332   0.00613   0.00755   0.01463
 Alpha virt. eigenvalues --    0.01625   0.01930   0.02374   0.02665   0.02914
 Alpha virt. eigenvalues --    0.03841   0.03855   0.03908   0.04340   0.04577
 Alpha virt. eigenvalues --    0.04872   0.05226   0.05477   0.05978   0.06144
 Alpha virt. eigenvalues --    0.06275   0.06761   0.06802   0.06894   0.07112
 Alpha virt. eigenvalues --    0.07330   0.07797   0.08193   0.08293   0.08501
 Alpha virt. eigenvalues --    0.08650   0.08998   0.09155   0.09626   0.09897
 Alpha virt. eigenvalues --    0.10073   0.10281   0.10591   0.11437   0.11676
 Alpha virt. eigenvalues --    0.11943   0.12358   0.12464   0.12548   0.12775
 Alpha virt. eigenvalues --    0.13188   0.13276   0.13810   0.13851   0.14577
 Alpha virt. eigenvalues --    0.14702   0.15100   0.15383   0.15776   0.15967
 Alpha virt. eigenvalues --    0.16511   0.16795   0.16936   0.17242   0.17486
 Alpha virt. eigenvalues --    0.17779   0.18111   0.18257   0.18560   0.18779
 Alpha virt. eigenvalues --    0.19034   0.19484   0.19809   0.20050   0.20146
 Alpha virt. eigenvalues --    0.20531   0.20713   0.20999   0.21104   0.21385
 Alpha virt. eigenvalues --    0.21599   0.21836   0.22149   0.22238   0.22361
 Alpha virt. eigenvalues --    0.22813   0.23115   0.23567   0.24151   0.24491
 Alpha virt. eigenvalues --    0.24644   0.24927   0.25204   0.25816   0.26333
 Alpha virt. eigenvalues --    0.26741   0.26973   0.27192   0.27470   0.27823
 Alpha virt. eigenvalues --    0.28084   0.28715   0.29017   0.29163   0.29485
 Alpha virt. eigenvalues --    0.29814   0.30158   0.30636   0.31174   0.31611
 Alpha virt. eigenvalues --    0.32024   0.32113   0.32822   0.33185   0.33709
 Alpha virt. eigenvalues --    0.33814   0.33970   0.34722   0.34852   0.35237
 Alpha virt. eigenvalues --    0.35583   0.36364   0.36579   0.36845   0.37318
 Alpha virt. eigenvalues --    0.37737   0.38145   0.38887   0.39040   0.39271
 Alpha virt. eigenvalues --    0.39600   0.40276   0.40456   0.40809   0.41023
 Alpha virt. eigenvalues --    0.41113   0.41880   0.42388   0.42772   0.43072
 Alpha virt. eigenvalues --    0.43513   0.43744   0.44000   0.44309   0.44519
 Alpha virt. eigenvalues --    0.44971   0.45485   0.45888   0.46518   0.47048
 Alpha virt. eigenvalues --    0.47417   0.48095   0.48211   0.48414   0.48973
 Alpha virt. eigenvalues --    0.49067   0.49244   0.49727   0.50132   0.50641
 Alpha virt. eigenvalues --    0.50836   0.51443   0.51879   0.52073   0.52339
 Alpha virt. eigenvalues --    0.52485   0.52731   0.53061   0.53669   0.54251
 Alpha virt. eigenvalues --    0.54451   0.54779   0.54910   0.55237   0.55742
 Alpha virt. eigenvalues --    0.56415   0.56798   0.57201   0.57601   0.58009
 Alpha virt. eigenvalues --    0.58843   0.59019   0.59073   0.59648   0.59885
 Alpha virt. eigenvalues --    0.60198   0.60696   0.60960   0.61403   0.61471
 Alpha virt. eigenvalues --    0.61785   0.62287   0.63151   0.63409   0.63563
 Alpha virt. eigenvalues --    0.64186   0.64364   0.64740   0.65116   0.65411
 Alpha virt. eigenvalues --    0.66093   0.66330   0.66651   0.67147   0.67732
 Alpha virt. eigenvalues --    0.68485   0.68622   0.68778   0.69771   0.70400
 Alpha virt. eigenvalues --    0.70615   0.71090   0.71145   0.71453   0.72028
 Alpha virt. eigenvalues --    0.72412   0.72714   0.73163   0.73310   0.74000
 Alpha virt. eigenvalues --    0.74663   0.75114   0.75843   0.76500   0.76831
 Alpha virt. eigenvalues --    0.77141   0.77352   0.77858   0.78156   0.78748
 Alpha virt. eigenvalues --    0.79847   0.80413   0.80752   0.81644   0.82371
 Alpha virt. eigenvalues --    0.82764   0.83383   0.83406   0.84491   0.84700
 Alpha virt. eigenvalues --    0.85362   0.85948   0.86440   0.86502   0.87562
 Alpha virt. eigenvalues --    0.88044   0.88133   0.88973   0.89667   0.90192
 Alpha virt. eigenvalues --    0.90849   0.91335   0.91827   0.92790   0.93181
 Alpha virt. eigenvalues --    0.93439   0.94378   0.94643   0.95303   0.96373
 Alpha virt. eigenvalues --    0.97402   0.97801   0.98364   0.99322   1.00387
 Alpha virt. eigenvalues --    1.00970   1.01792   1.02490   1.02895   1.03298
 Alpha virt. eigenvalues --    1.03806   1.04316   1.05111   1.06212   1.06509
 Alpha virt. eigenvalues --    1.07250   1.08125   1.08641   1.08878   1.10425
 Alpha virt. eigenvalues --    1.11319   1.11390   1.12482   1.13159   1.13823
 Alpha virt. eigenvalues --    1.14162   1.14865   1.15599   1.16167   1.16912
 Alpha virt. eigenvalues --    1.18007   1.19143   1.20147   1.20730   1.20986
 Alpha virt. eigenvalues --    1.21523   1.21654   1.22144   1.23316   1.24155
 Alpha virt. eigenvalues --    1.25112   1.26120   1.26679   1.27383   1.27851
 Alpha virt. eigenvalues --    1.29283   1.29818   1.30727   1.31573   1.32570
 Alpha virt. eigenvalues --    1.33438   1.34146   1.35343   1.36320   1.36778
 Alpha virt. eigenvalues --    1.37773   1.37976   1.38959   1.39633   1.40919
 Alpha virt. eigenvalues --    1.41176   1.41680   1.43128   1.43864   1.44998
 Alpha virt. eigenvalues --    1.45563   1.45889   1.46703   1.47603   1.48417
 Alpha virt. eigenvalues --    1.49618   1.50315   1.50850   1.52812   1.53167
 Alpha virt. eigenvalues --    1.54486   1.55177   1.56362   1.57334   1.57897
 Alpha virt. eigenvalues --    1.58423   1.59442   1.59895   1.61369   1.62052
 Alpha virt. eigenvalues --    1.62790   1.63343   1.64294   1.64939   1.65196
 Alpha virt. eigenvalues --    1.66166   1.66866   1.67425   1.68344   1.68947
 Alpha virt. eigenvalues --    1.69246   1.70093   1.70799   1.71358   1.72356
 Alpha virt. eigenvalues --    1.73276   1.73567   1.74253   1.75759   1.76224
 Alpha virt. eigenvalues --    1.76825   1.77237   1.78928   1.79759   1.80856
 Alpha virt. eigenvalues --    1.81087   1.81906   1.82083   1.82675   1.83021
 Alpha virt. eigenvalues --    1.83325   1.84816   1.85671   1.86032   1.86393
 Alpha virt. eigenvalues --    1.87532   1.88748   1.89277   1.90005   1.90409
 Alpha virt. eigenvalues --    1.91014   1.91863   1.92911   1.93403   1.93882
 Alpha virt. eigenvalues --    1.94337   1.95665   1.97681   1.98040   1.98588
 Alpha virt. eigenvalues --    1.99445   1.99688   2.00568   2.01317   2.01745
 Alpha virt. eigenvalues --    2.02081   2.03152   2.03523   2.04912   2.05247
 Alpha virt. eigenvalues --    2.05905   2.06589   2.06997   2.08434   2.09507
 Alpha virt. eigenvalues --    2.11025   2.12056   2.12527   2.14048   2.15150
 Alpha virt. eigenvalues --    2.15682   2.16222   2.17443   2.18497   2.19364
 Alpha virt. eigenvalues --    2.20574   2.20741   2.22266   2.22687   2.23386
 Alpha virt. eigenvalues --    2.24553   2.25369   2.26518   2.27216   2.28400
 Alpha virt. eigenvalues --    2.28734   2.30769   2.31169   2.32305   2.32444
 Alpha virt. eigenvalues --    2.33152   2.33379   2.35206   2.36062   2.37103
 Alpha virt. eigenvalues --    2.37964   2.38998   2.39653   2.40393   2.42331
 Alpha virt. eigenvalues --    2.43551   2.43942   2.45878   2.46385   2.47032
 Alpha virt. eigenvalues --    2.47268   2.47779   2.49054   2.51975   2.52757
 Alpha virt. eigenvalues --    2.54468   2.54697   2.55692   2.57142   2.58887
 Alpha virt. eigenvalues --    2.60216   2.60575   2.61352   2.62342   2.62696
 Alpha virt. eigenvalues --    2.63382   2.64556   2.65325   2.66638   2.68862
 Alpha virt. eigenvalues --    2.69401   2.70695   2.71858   2.73501   2.74317
 Alpha virt. eigenvalues --    2.74821   2.75444   2.77179   2.79764   2.80093
 Alpha virt. eigenvalues --    2.82563   2.83553   2.84154   2.85843   2.86202
 Alpha virt. eigenvalues --    2.87513   2.88219   2.89147   2.90788   2.92346
 Alpha virt. eigenvalues --    2.93081   2.93716   2.94761   2.95429   2.98126
 Alpha virt. eigenvalues --    3.02669   3.05105   3.06344   3.09328   3.13179
 Alpha virt. eigenvalues --    3.15140   3.17279   3.21259   3.27121   3.32341
 Alpha virt. eigenvalues --    3.36438   3.37354   3.38444   3.40651   3.41546
 Alpha virt. eigenvalues --    3.43307   3.43354   3.44426   3.47796   3.48627
 Alpha virt. eigenvalues --    3.50887   3.52212   3.53095   3.56255   3.58608
 Alpha virt. eigenvalues --    3.58866   3.66682   3.73506   3.77699   3.81070
 Alpha virt. eigenvalues --    3.84452   3.91869   3.93771   3.97034   4.01349
 Alpha virt. eigenvalues --    4.03396   4.06771   4.12438   4.30030   4.37436
 Alpha virt. eigenvalues --    4.88023
          Condensed to atoms (all electrons):
               1          2          3          4          5          6
     1  N   16.859722  -5.047686  -0.456795  -1.126667  -0.105930   1.466022
     2  C   -5.047686  22.349142  -4.435545   1.092396  -1.142205  -6.994796
     3  C   -0.456795  -4.435545  11.466774  -2.332570   1.182929   0.704436
     4  C   -1.126667   1.092396  -2.332570   8.377648  -0.844197   0.313584
     5  C   -0.105930  -1.142205   1.182929  -0.844197   6.448053  -0.279381
     6  C    1.466022  -6.994796   0.704436   0.313584  -0.279381  22.973083
     7  C   -0.734788   0.952539  -0.796911   0.093202  -0.109022  -3.374046
     8  N   -0.056801   0.083752   0.038840  -0.015422   0.030620  -0.719305
     9  C    0.028617   0.073691  -0.050843  -0.018749  -0.025586  -1.367099
    10  C    0.100131  -1.074812  -0.237861   0.018228  -0.049354  -0.026996
    11  C   -0.234297   1.048012   0.231232  -0.146663   0.129418  -8.060621
    12  O   -0.006669   0.019481  -0.001542   0.001846   0.001780  -0.086740
    13  O   -0.151625   0.033095   0.059360   0.012437  -0.042761   0.026806
    14  H   -1.055649   0.593596   0.078193   0.212223  -0.381733  -0.181533
    15  H   -0.090421   0.064844   0.553652  -0.823036   0.279753  -0.115096
    16  H    0.227009  -0.149990   0.091385  -0.306406  -0.158409   0.122435
    17  H    0.338945   0.754979  -1.580495   0.446082  -0.348863   0.212753
    18  H   -0.098306   0.032850   0.007994   0.045591   0.247117  -0.437369
    19  H   -0.352074   0.119540   0.017820  -0.144322  -0.049666   0.005487
    20  H   -0.278342  -2.259821   0.730008   0.111457  -0.025937   0.624282
    21  H   -0.271486  -0.489633  -0.532759   0.063786   0.050578  -1.900599
    22  H    0.008622   0.012927   0.002684  -0.000640   0.000150  -0.058641
    23  H   -0.006247   0.059320   0.008569   0.003104  -0.003192   0.257230
    24  H   -0.021724  -0.360997  -0.117208  -0.018370   0.005507   1.039885
    25  C    1.112972  -0.897733  -0.210062  -0.006547  -0.137554   0.411130
    26  H   -0.012873   0.038975  -0.014324   0.005215  -0.008013   0.013026
    27  H   -0.330927   0.388783   0.321987  -0.063311  -0.237607  -0.174905
    28  H   -0.018212  -0.012322  -0.021659   0.005501   0.039421   0.000124
    29  H   -0.011459   0.012097  -0.006769   0.010927  -0.004236  -0.004388
    30  H    0.002483  -0.007971   0.001606  -0.001141   0.000635   0.006945
    31  O   -0.022422   0.000075   0.053424  -0.029758   0.029036   0.027046
    32  H    0.002409   0.001675   0.002876  -0.001517   0.001623   0.001832
    33  H    0.029524  -0.062197   0.045502  -0.014260   0.004096   0.045832
    34  H   -0.419781   0.045100  -0.067663   0.050601  -0.016694   0.102816
    35  H    0.196233   0.078359   0.161907  -0.059671  -0.001786  -0.035179
    36  H   -0.698602   0.220885  -0.124588   0.086971   0.084300  -0.079838
    37  O    0.020275  -0.021718   0.040204  -0.105769   0.033260   0.018780
    38  H    0.002100  -0.006209   0.001195   0.008085  -0.005813   0.011584
    39  H   -0.000032   0.002300   0.003587   0.000327  -0.001142  -0.005332
    40  O    0.003616   0.002049  -0.026810   0.028871  -0.002181   0.049436
    41  H    0.000091  -0.007042   0.012380  -0.002635   0.000981   0.002336
    42  H    0.000384   0.003539  -0.005336   0.000356  -0.000355  -0.000622
               7          8          9         10         11         12
     1  N   -0.734788  -0.056801   0.028617   0.100131  -0.234297  -0.006669
     2  C    0.952539   0.083752   0.073691  -1.074812   1.048012   0.019481
     3  C   -0.796911   0.038840  -0.050843  -0.237861   0.231232  -0.001542
     4  C    0.093202  -0.015422  -0.018749   0.018228  -0.146663   0.001846
     5  C   -0.109022   0.030620  -0.025586  -0.049354   0.129418   0.001780
     6  C   -3.374046  -0.719305  -1.367099  -0.026996  -8.060621  -0.086740
     7  C   17.745356  -0.518515  -2.890780   2.020463  -6.115191  -0.310725
     8  N   -0.518515   8.272990   0.270395  -0.194760   0.366682  -0.020753
     9  C   -2.890780   0.270395  11.891071  -3.397452   1.816725   0.088391
    10  C    2.020463  -0.194760  -3.397452  12.937139  -4.585612  -0.013517
    11  C   -6.115191   0.366682   1.816725  -4.585612  22.951017   0.032367
    12  O   -0.310725  -0.020753   0.088391  -0.013517   0.032367   8.634037
    13  O   -0.172101   0.027833   0.032263  -0.028730   0.043484   0.010900
    14  H   -0.008463   0.002639  -0.004707  -0.000172   0.011103   0.000353
    15  H    0.042715  -0.000240  -0.001327   0.002799   0.005921   0.000164
    16  H   -0.008833  -0.007344   0.000865  -0.002156  -0.007414  -0.002924
    17  H    0.169505  -0.001572   0.012846  -0.015624  -0.051902  -0.000006
    18  H   -0.223861  -0.014770  -0.037704  -0.030859   0.095837   0.000309
    19  H   -0.011580  -0.001230   0.003224  -0.009853   0.027484   0.000046
    20  H   -0.217570   0.000102  -0.016797   0.081374  -0.176496   0.000192
    21  H   -0.905827   0.016796  -0.209626   0.256413  -0.513099   0.220436
    22  H    0.172299  -0.286424  -0.556741   0.205113   0.174651   0.006825
    23  H   -0.255467   0.010740   0.382148  -1.368963   0.598352  -0.000650
    24  H    0.521260  -0.047218  -0.257305   0.901986  -2.564961   0.000004
    25  C   -0.046285   0.007388  -0.047011   0.116647  -0.099215  -0.002520
    26  H    0.034525   0.120997   0.092354  -0.071687  -0.023735   0.194027
    27  H   -0.028123   0.010780   0.054934  -0.061813   0.020521   0.017616
    28  H    0.041087  -0.003439  -0.004028   0.005932  -0.008801  -0.003614
    29  H    0.076103  -0.010988   0.001061  -0.004102   0.003368   0.011759
    30  H    0.029553  -0.008413  -0.018973   0.012749  -0.008659   0.222769
    31  O   -0.037162   0.006514   0.015448  -0.007909   0.003495  -0.120079
    32  H   -0.019696  -0.013175  -0.002237  -0.001422   0.002151   0.000644
    33  H   -0.003651   0.019761  -0.015013   0.012451  -0.013592  -0.000368
    34  H   -0.003045  -0.002735  -0.006122   0.022012  -0.060291   0.000043
    35  H   -0.036643   0.004508   0.009591  -0.054098   0.075013  -0.000077
    36  H    0.027132   0.003541  -0.002169  -0.002470   0.081133  -0.000165
    37  O   -0.015213  -0.001532  -0.000185  -0.000917   0.004813  -0.001713
    38  H   -0.039282   0.003658  -0.000991  -0.000581   0.002209  -0.000682
    39  H    0.017609   0.000327   0.000426   0.000112  -0.000235   0.000287
    40  O   -0.100871   0.032187  -0.029269   0.019521  -0.018851  -0.037051
    41  H    0.012841  -0.003243  -0.005240   0.001833   0.001898   0.004842
    42  H    0.025114  -0.004446   0.001757  -0.000887   0.000835  -0.004782
              13         14         15         16         17         18
     1  N   -0.151625  -1.055649  -0.090421   0.227009   0.338945  -0.098306
     2  C    0.033095   0.593596   0.064844  -0.149990   0.754979   0.032850
     3  C    0.059360   0.078193   0.553652   0.091385  -1.580495   0.007994
     4  C    0.012437   0.212223  -0.823036  -0.306406   0.446082   0.045591
     5  C   -0.042761  -0.381733   0.279753  -0.158409  -0.348863   0.247117
     6  C    0.026806  -0.181533  -0.115096   0.122435   0.212753  -0.437369
     7  C   -0.172101  -0.008463   0.042715  -0.008833   0.169505  -0.223861
     8  N    0.027833   0.002639  -0.000240  -0.007344  -0.001572  -0.014770
     9  C    0.032263  -0.004707  -0.001327   0.000865   0.012846  -0.037704
    10  C   -0.028730  -0.000172   0.002799  -0.002156  -0.015624  -0.030859
    11  C    0.043484   0.011103   0.005921  -0.007414  -0.051902   0.095837
    12  O    0.010900   0.000353   0.000164  -0.002924  -0.000006   0.000309
    13  O    8.370942   0.022362  -0.004243   0.007513   0.001726   0.003625
    14  H    0.022362   2.884817   0.078038  -0.304639  -0.031044   0.039255
    15  H   -0.004243   0.078038   2.279063  -0.631441  -0.328509   0.171410
    16  H    0.007513  -0.304639  -0.631441   2.492420   0.269653  -0.439506
    17  H    0.001726  -0.031044  -0.328509   0.269653   2.896940  -1.078495
    18  H    0.003625   0.039255   0.171410  -0.439506  -1.078495   3.444878
    19  H   -0.003693  -0.521915  -0.179393   0.220247   0.031006  -0.016040
    20  H   -0.001174   0.073156   0.062296  -0.099050  -0.501986   0.365126
    21  H    0.017423  -0.039896  -0.001909   0.070360   0.285723  -0.719220
    22  H   -0.000132  -0.000182  -0.000072   0.000741   0.001418  -0.001906
    23  H   -0.000429   0.000056   0.000136  -0.000000  -0.001785   0.003852
    24  H    0.000147  -0.003220  -0.000524   0.002548   0.008907  -0.034914
    25  C   -0.031981  -0.185788  -0.021695   0.058056   0.061393  -0.062785
    26  H    0.003730  -0.000019   0.000855  -0.004597  -0.005941   0.015588
    27  H   -0.024393   0.236808   0.033222  -0.078433  -0.062088   0.116750
    28  H    0.378018  -0.009985  -0.002752   0.010300   0.003347  -0.010683
    29  H    0.001190   0.000472  -0.000991   0.005072  -0.000063   0.002877
    30  H   -0.001826  -0.000030  -0.000086   0.000732   0.000421  -0.002376
    31  O   -0.087967   0.004767  -0.000828  -0.022183  -0.001954   0.041001
    32  H   -0.004596  -0.000069   0.004566  -0.008905  -0.003406   0.002041
    33  H    0.077275  -0.002421   0.000353   0.002355  -0.007090   0.024301
    34  H    0.022622  -0.030988  -0.001116   0.008612  -0.002072  -0.002329
    35  H    0.010645   0.002431   0.001719  -0.012550  -0.010449   0.025816
    36  H   -0.012743   0.025792  -0.004113   0.011850   0.026462  -0.030511
    37  O   -0.008207  -0.000506   0.010571  -0.040739  -0.010107   0.064106
    38  H   -0.000378  -0.000569  -0.002218   0.008441   0.001121  -0.008866
    39  H    0.001072   0.000041   0.000870   0.002102   0.000640  -0.006511
    40  O    0.000800   0.000106  -0.000720  -0.001458  -0.007450   0.069123
    41  H    0.000131   0.000271  -0.000213  -0.000958  -0.002403   0.010510
    42  H   -0.000226  -0.000084  -0.000233   0.000733   0.001786  -0.004333
              19         20         21         22         23         24
     1  N   -0.352074  -0.278342  -0.271486   0.008622  -0.006247  -0.021724
     2  C    0.119540  -2.259821  -0.489633   0.012927   0.059320  -0.360997
     3  C    0.017820   0.730008  -0.532759   0.002684   0.008569  -0.117208
     4  C   -0.144322   0.111457   0.063786  -0.000640   0.003104  -0.018370
     5  C   -0.049666  -0.025937   0.050578   0.000150  -0.003192   0.005507
     6  C    0.005487   0.624282  -1.900599  -0.058641   0.257230   1.039885
     7  C   -0.011580  -0.217570  -0.905827   0.172299  -0.255467   0.521260
     8  N   -0.001230   0.000102   0.016796  -0.286424   0.010740  -0.047218
     9  C    0.003224  -0.016797  -0.209626  -0.556741   0.382148  -0.257305
    10  C   -0.009853   0.081374   0.256413   0.205113  -1.368963   0.901986
    11  C    0.027484  -0.176496  -0.513099   0.174651   0.598352  -2.564961
    12  O    0.000046   0.000192   0.220436   0.006825  -0.000650   0.000004
    13  O   -0.003693  -0.001174   0.017423  -0.000132  -0.000429   0.000147
    14  H   -0.521915   0.073156  -0.039896  -0.000182   0.000056  -0.003220
    15  H   -0.179393   0.062296  -0.001909  -0.000072   0.000136  -0.000524
    16  H    0.220247  -0.099050   0.070360   0.000741  -0.000000   0.002548
    17  H    0.031006  -0.501986   0.285723   0.001418  -0.001785   0.008907
    18  H   -0.016040   0.365126  -0.719220  -0.001906   0.003852  -0.034914
    19  H    2.319002  -0.069808  -0.005359   0.000173  -0.000506   0.000809
    20  H   -0.069808   3.538482  -0.178132  -0.001759   0.007371  -0.138298
    21  H   -0.005359  -0.178132   8.286001   0.003920  -0.041108   0.083121
    22  H    0.000173  -0.001759   0.003920   2.202134  -0.126214  -0.010960
    23  H   -0.000506   0.007371  -0.041108  -0.126214   2.233859  -0.145056
    24  H    0.000809  -0.138298   0.083121  -0.010960  -0.145056   3.059796
    25  C    0.008243   0.003149   0.061114   0.003467  -0.009009   0.051590
    26  H    0.000045   0.004434  -0.283033  -0.095425   0.011403  -0.002931
    27  H   -0.041347   0.081712  -0.406105  -0.008282   0.006387  -0.019541
    28  H    0.005249  -0.004041   0.059627   0.000293  -0.000088   0.000526
    29  H    0.000172   0.000168  -0.106592   0.001514   0.000202  -0.000504
    30  H    0.000007  -0.000434   0.016234   0.005591  -0.000466   0.000074
    31  O    0.000343   0.001999  -0.256629   0.001204  -0.000365   0.000159
    32  H    0.000198   0.001365   0.064402  -0.000551   0.000029  -0.000171
    33  H   -0.001500   0.005329  -0.113816   0.000740   0.000103  -0.000101
    34  H    0.017022   0.029419  -0.007362   0.000366  -0.001082   0.002920
    35  H   -0.001658   0.046974  -0.021824  -0.000382  -0.002520  -0.043639
    36  H    0.068157  -0.033411   0.053811   0.000038   0.000499   0.015734
    37  O    0.002858   0.000877  -0.073069   0.000101  -0.000043   0.000087
    38  H    0.000169  -0.000367   0.019870  -0.000213   0.000063  -0.000080
    39  H   -0.000290  -0.000162   0.012235   0.000029  -0.000004   0.000016
    40  O    0.000018   0.003043  -0.150374  -0.001475   0.000599  -0.000924
    41  H   -0.000033   0.001320  -0.061831   0.002447   0.000091  -0.000431
    42  H    0.000023  -0.000620  -0.003035   0.000343  -0.000126   0.000247
              25         26         27         28         29         30
     1  N    1.112972  -0.012873  -0.330927  -0.018212  -0.011459   0.002483
     2  C   -0.897733   0.038975   0.388783  -0.012322   0.012097  -0.007971
     3  C   -0.210062  -0.014324   0.321987  -0.021659  -0.006769   0.001606
     4  C   -0.006547   0.005215  -0.063311   0.005501   0.010927  -0.001141
     5  C   -0.137554  -0.008013  -0.237607   0.039421  -0.004236   0.000635
     6  C    0.411130   0.013026  -0.174905   0.000124  -0.004388   0.006945
     7  C   -0.046285   0.034525  -0.028123   0.041087   0.076103   0.029553
[...]
 7,0.00000111,-0.00041562,0.00061952,-0.00211652,0.00178799,0.00039763,
 -0.00021110,-0.00008073,0.00001239,-0.00005015,0.00007146,0.00000307,-
 0.00001327,-0.00020805,-0.00006785,0.00000208,0.00003421,0.00007504,-0
 .00005041,0.00004927,0.00016653,0.00017069,0.00007581,0.00002243,0.000
 01914,-0.00000975,-0.00000286,-0.00007472,0.00000379,-0.00025792,0.000
 34634,0.00000979,0.00000950,0.00001524,0.00000027,0.00000307,0.0000105
 0,0.00000267,0.00000118,0.00001318,-0.00005587,-0.00000114,-0.00006477
 ,0.00001827,0.00004507,0.00042732,-0.00077494,-0.00016675,0.00084860,-
 0.00001354,-0.00001974,-0.00007555,0.00075690,-0.00239948,-0.00029851,
 -0.00004776,-0.00001667,0.00004441,0.00214287,0.00110173,0.00245593,-0
 .00376406,0.00190588,-0.00823447,-0.00277198,-0.00040931,-0.00046288,-
 0.00003367,0.00000944,-0.00002007,-0.00000108,-0.00000161,0.00002989,0
 .00003428,0.00000049,-0.00001043,-0.10972123,0.18696980,-0.20366131,0.
 10895849,-0.17263542,0.21239724,0.00001522,0.00008727,0.00006466,0.000
 01943,-0.00003268,-0.00001394,0.00009518,0.00005931,-0.00000870,-0.000
 10717,0.00012430,0.00009493,-0.00006095,-0.00003983,-0.00005458,0.0000
 3591,-0.00003562,-0.00000278,0.00006592,0.00003441,0.00000309,-0.00007
 240,-0.00003952,0.00001342,0.00001071,0.00001492,-0.00000719,-0.000020
 41,0.00000113,0.00000588,-0.00002698,0.00000091,0.00000194,-0.00025164
 ,-0.00001591,0.00008125,-0.00009295,0.00008625,0.00001859,-0.00002818,
 -0.00000554,-0.00002381,-0.00019905,0.00000636,0.00011146,0.00006674,-
 0.00051440,-0.00010465,-0.00002107,0.00002765,-0.00000569,0.00002877,-
 0.00000175,-0.00008896,0.00002194,0.00002577,-0.00000140,0.00000218,0.
 00001407,0.00000864,-0.00004485,0.00009977,0.00002842,-0.00000014,0.00
 000251,0.00000116,-0.00000206,0.00000260,0.00000124,-0.00000408,-0.000
 00902,0.00000079,-0.00004139,0.00000875,-0.00001380,0.00011420,0.00004
 667,-0.00004508,0.00009985,-0.00002268,-0.00006036,-0.00001287,-0.0000
 5872,-0.00004512,0.00022880,-0.00015111,-0.00015969,0.00007014,0.00007
 832,0.00000404,0.00049972,0.00097968,0.00189612,-0.00104879,-0.0003922
 7,-0.00221093,0.00011669,0.00002408,0.00024532,0.00000102,-0.00000626,
 -0.00000406,0.00000892,0.00001465,0.00000875,0.00000234,-0.00000325,-0
 .00000326,-0.17096924,-0.25256417,-0.04060367,0.00807948,0.01440574,0.
 00182966,0.16439173,0.00014151,-0.00003230,-0.00005591,-0.00001015,-0.
 00002503,-0.00001883,-0.00009368,-0.00001026,0.00001088,0.00012655,-0.
 00002289,-0.00000437,0.00001902,0.00007054,-0.00003256,0.00004545,0.00
 004807,-0.00000071,-0.00010856,-0.00002268,0.00000428,0.00013498,0.000
 11472,-0.00002120,0.00003136,-0.00005838,-0.00001213,-0.00000039,0.000
 02874,0.00000243,-0.00000122,-0.00004084,-0.00000159,0.00013458,0.0003
 6316,0.00007615,0.00065083,0.00004908,0.00006577,0.00000695,0.00000706
 ,0.00003901,0.00010669,0.00000970,-0.00007485,-0.00026479,0.00021443,0
 .00002142,0.00003259,0.00000226,-0.00000570,-0.00004308,-0.00009340,0.
 00006276,0.00004062,0.00001015,0.00001156,0.00002376,0.00001150,0.0000
 0558,0.00002240,0.00000007,-0.00001153,-0.00000509,0.00000469,0.000002
 39,0.00000479,0.00000358,-0.00000259,0.00000832,0.00000427,-0.00000187
 ,-0.00004059,-0.00002738,-0.00002619,-0.00026646,-0.00017370,0.0000553
 0,-0.00021394,-0.00002114,0.00020086,0.00001239,0.00004923,-0.00004657
 ,-0.00001364,-0.00024806,0.00002307,0.00003003,-0.00005359,-0.00004099
 ,0.00084791,0.00136991,0.00105486,-0.00143607,-0.00326323,-0.00223385,
 -0.00107566,-0.00008571,-0.00035208,-0.00000384,0.00000025,0.00001218,
 -0.00000647,-0.00000344,-0.00000498,0.00001287,0.00000553,-0.00000860,
 -0.21562085,-0.38522499,-0.02127891,-0.02015725,-0.02096985,-0.0086605
 4,0.23597944,0.40814602,-0.00001108,-0.00002214,-0.00007412,0.00001980
 ,0.00001447,0.00003198,-0.00000241,-0.00001034,-0.00003372,-0.00002119
 ,0.00006454,0.00001305,0.00003341,-0.00005151,0.00006424,-0.00000228,-
 0.00003480,-0.00000536,0.00000587,0.00010776,0.00000477,0.00003068,-0.
 00000482,-0.00001605,-0.00000572,-0.00000735,0.00000566,0.00000999,-0.
 00000573,-0.00000703,-0.00000287,0.00001191,0.00000135,0.00020032,-0.0
 0000679,0.00002449,-0.00015899,0.00007914,-0.00012564,-0.00001815,0.00
 000113,-0.00002474,0.00007459,-0.00002682,-0.00001559,-0.00001097,0.00
 000368,0.00004915,0.00003460,0.00000908,-0.00000809,-0.00001362,0.0000
 2397,0.00004009,-0.00000660,0.00000140,-0.00001320,-0.00000066,-0.0000
 0243,-0.00000703,0.00002274,0.00003240,-0.00006007,-0.00000207,-0.0000
 0053,0.00000332,0.00000148,-0.00000164,0.00000278,0.00000108,-0.000000
 87,0.00000275,0.00001367,-0.00000209,0.00001751,-0.00008719,-0.0000305
 9,0.00001869,-0.00005718,-0.00000302,0.00007925,-0.00005176,-0.0000919
 4,0.00001364,-0.00028881,0.00021476,-0.00010622,-0.00003069,-0.0000635
 6,0.00002860,0.00041176,-0.00270405,-0.00561224,-0.00358638,-0.0014275
 1,0.00729245,0.00048633,0.00004513,0.00020199,-0.00000534,0.00000269,-
 0.00000466,-0.00000420,-0.00000442,-0.00000197,-0.00000032,-0.00000016
 ,-0.00000327,-0.05433533,-0.05062591,-0.03814188,0.01826857,0.02219620
 ,0.00535903,0.04049472,0.03042399,0.03232201,-0.00004397,0.00001476,-0
 .00025698,0.00015473,0.00000484,0.00015537,0.00063337,-0.00017664,0.00
 013385,-0.00007882,-0.00014254,-0.00001211,0.00005979,0.00005927,-0.00
 000907,-0.00008039,-0.00053384,-0.00012708,0.00017387,0.00122365,-0.00
 065634,0.00047411,0.00015558,-0.00052953,-0.00018393,-0.00005917,0.000
 12095,0.00022075,-0.00018459,-0.00001701,0.00000323,0.00025612,0.00012
 271,0.00514728,0.00084005,0.00107913,0.00045844,0.00007193,-0.00034007
 ,-0.00003032,0.00000761,-0.00006557,-0.00003472,0.00003347,-0.00000536
 ,0.00003152,-0.00005014,0.00003990,-0.00017149,0.00002632,-0.00003611,
 0.00017442,-0.00004074,-0.00017570,-0.00003301,-0.00002500,0.00000532,
 -0.00007223,-0.00003569,-0.00008239,-0.00062196,-0.00087250,0.00035594
 ,-0.00004662,-0.00005946,-0.00000262,0.00000591,0.00000141,-0.00001531
 ,-0.00002235,-0.00003269,0.00001095,0.00009368,0.00007594,0.00002812,-
 0.00215165,-0.00066618,0.00163775,-0.00027557,-0.00005647,0.00043754,-
 0.00001348,0.00000044,0.00007910,-0.00100299,0.00091460,0.00002041,-0.
 00016214,-0.00065604,-0.00101477,0.00082358,-0.00063359,-0.00061278,-0
 .00031191,0.00030661,0.00093747,-0.00056430,-0.00012063,0.00005327,-0.
 00002248,0.00001700,-0.00003085,0.00000862,-0.00001231,0.00003083,-0.0
 0000801,-0.00000636,0.00001120,0.00197839,0.00781448,-0.00419211,-0.00
 381328,-0.00323092,0.00128033,-0.00120212,0.00097931,-0.00107062,0.247
 93105,0.00009453,0.00043021,-0.00003690,0.00030755,-0.00053020,0.00001
 936,-0.00002146,0.00009535,-0.00005384,-0.00025269,-0.00008891,0.00031
 633,-0.00000623,-0.00018397,-0.00031147,0.00025527,-0.00022406,-0.0000
 3645,0.00029630,-0.00050676,-0.00031966,-0.00125957,-0.00017281,-0.000
 34329,0.00011249,0.00087740,0.00005780,-0.00027327,-0.00003500,0.00015
 156,-0.00004677,-0.00005766,0.00004501,-0.00033268,-0.00032228,-0.0090
 0924,0.00073346,0.00051754,-0.00006453,-0.00006073,0.00004870,-0.00001
 360,-0.00003819,0.00009875,-0.00000562,-0.00022767,0.00002750,-0.00024
 774,0.00002959,0.00004831,-0.00001731,-0.00015483,-0.00046531,-0.00000
 249,0.00007712,0.00007834,0.00007047,-0.00001554,0.00011179,0.00001312
 ,0.00004053,-0.00066670,0.00017055,0.00004205,0.00001014,0.00001139,-0
 .00004867,0.00000972,0.00003133,-0.00004047,-0.00003989,0.00002190,-0.
 00003094,-0.00001184,-0.00006649,0.00194449,0.00120436,0.00090296,-0.0
 0028494,-0.00026516,0.00033131,-0.00002102,-0.00010018,-0.00005441,0.0
 0159344,-0.00346030,0.00086853,-0.00141846,0.00014647,-0.00029332,0.00
 011004,0.00410378,0.00201219,-0.00078143,-0.00397729,-0.00461584,-0.00
 117764,-0.00044195,-0.00025519,-0.00001248,0.00002043,-0.00002142,0.00
 003661,0.00003509,0.00007787,0.00001595,-0.00000545,0.00000993,0.00703
 490,-0.01413690,0.01257867,-0.00526018,-0.00124046,-0.00429794,0.00124
 539,0.00064941,0.00122508,-0.19926669,0.26006515,-0.00036450,0.0001532
 4,0.00053498,0.00017174,-0.00027926,-0.00030122,-0.00042316,0.00016498
 ,0.00003090,0.00025451,0.00015898,-0.00005469,-0.00004033,-0.00021426,
 -0.00006086,-0.00022769,-0.00060694,0.00006697,-0.00014025,0.00075249,
 -0.00052605,-0.00129324,-0.00103570,0.00077408,-0.00016125,0.00050911,
 0.00007732,-0.00016773,-0.00019386,0.00001127,-0.00021768,0.00004303,0
 .00009585,0.00101905,-0.00854830,-0.01089655,-0.00183015,-0.00016494,0
 .00023610,0.00006355,0.00001089,0.00004949,-0.00007704,0.00003100,0.00
 002600,0.00005257,-0.00008082,0.00000766,-0.00015747,0.00000567,0.0000
 6161,0.00001846,-0.00006139,-0.00054695,-0.00006071,0.00001540,0.00001
 237,-0.00004844,0.00006844,0.00008301,0.00023459,-0.00049474,-0.000194
 59,0.00004242,-0.00004678,-0.00005690,-0.00007358,-0.00001361,-0.00001
 268,-0.00005901,-0.00005709,-0.00000761,0.00008123,0.00000356,0.000052
 75,0.00364184,0.00228720,-0.00159162,0.00092685,0.00004347,-0.00092651
 ,0.00003685,-0.00003856,0.00008312,0.00119480,-0.00165007,0.00142512,-
 0.00222954,-0.00036855,-0.00153450,-0.00193309,0.00103122,-0.00104584,
 0.00043317,-0.00085332,0.00075381,0.00261170,0.00029553,0.00062982,0.0
 0003711,0.00000135,0.00001041,0.00002773,0.00002311,0.00000854,-0.0000
 4221,-0.00000385,0.00002446,-0.00259593,0.01187948,0.00101987,0.000721
 54,-0.00429553,-0.01116629,-0.00122096,0.00086489,-0.00142839,0.119227
 28,0.10396515,0.67313678,0.00003928,-0.00012979,0.00003123,-0.00021688
 ,0.00018812,0.00002920,0.00001384,-0.00003674,-0.00002828,-0.00000171,
 -0.00000199,-0.00003287,-0.00000333,0.00006399,0.00005731,0.00000947,0
 .00069988,-0.00002196,-0.00038794,-0.00119393,0.00023887,-0.00036481,0
 .00011284,0.00070265,0.00012473,-0.00022094,-0.00005347,-0.00001159,0.
 00014092,-0.00005470,0.00012090,-0.00010647,-0.00008283,-0.00916398,-0
 .00118875,-0.00061734,-0.00010079,-0.00008939,0.00015477,0.00000605,-0
 .00001908,0.00000900,0.00002193,-0.00002403,-0.00000465,0.00001539,0.0
 0002010,0.00002369,0.00004395,-0.00001793,-0.00000480,0.00011133,0.000
 09549,0.00013011,0.00000966,-0.00000812,-0.00001316,0.00004191,-0.0000
 3777,0.,-0.00104221,0.00059026,-0.00056300,0.00003510,0.00006116,0.000
 03240,0.00001547,0.00000288,-0.00001005,0.00004145,0.00005609,-0.00000
 028,-0.00004394,-0.00002447,-0.00001184,0.00166886,-0.00079086,-0.0038
 1846,0.00002778,0.00006590,-0.00012566,0.00001343,0.00000830,-0.000033
 85,0.00084348,-0.00058875,-0.00077606,0.00096472,0.00136649,0.00287810
 ,-0.00054709,-0.00002074,0.00044673,0.00027284,0.00058665,-0.00014857,
 0.00012322,0.00009580,-0.00011404,0.00000591,-0.00001463,0.00001079,-0
 .00001430,-0.00000293,-0.00003129,0.00000998,0.00000608,-0.00000815,-0
 .00021627,-0.00004119,-0.00002304,-0.00029042,0.00021884,0.00061957,0.
 00013892,-0.00005861,-0.00020817,-0.08775884,0.12250769,0.12366967,0.0
 8858782,0.00000736,-0.00021417,-0.00007084,-0.00010483,0.00028966,0.00
 004598,0.00014476,-0.00005403,0.00006883,0.00002762,-0.00001435,-0.000
 11313,0.00001618,0.00012226,0.00011829,-0.00006555,-0.00009952,-0.0000
 9376,-0.00030740,0.00097428,0.00005992,0.00138769,0.00048219,0.0000514
 3,-0.00007711,-0.00079471,-0.00002786,0.00032789,0.00001957,-0.0001332
 6,0.00005341,0.00015218,0.00001546,0.00095177,-0.00335084,0.00621598,-
 0.00020115,-0.00023662,-0.00005786,0.00000728,-0.00002398,-0.00001148,
 0.00000836,-0.00003553,0.00000194,0.00006093,-0.00001571,0.00007662,-0
 .00000829,-0.00002051,-0.00001123,0.00011623,0.00006802,0.00005116,-0.
 00001589,-0.00003145,-0.00002340,0.00001682,-0.00006911,-0.00002186,-0
 .00000471,0.00018857,0.00014122,-0.00005776,-0.00002054,0.00002912,0.0
 0006579,0.00000552,-0.00002881,0.00002748,0.00000273,0.00000037,0.0000
 0372,0.00002208,0.00002613,-0.00394268,-0.00307673,-0.00277249,-0.0000
 1573,0.00010094,-0.00000343,-0.00001306,0.00004683,0.00001731,-0.00136
 511,0.00391817,0.00031875,0.00148829,-0.00056269,-0.00008405,0.0002258
 4,-0.00235979,-0.00089128,0.00087593,0.00033610,0.00196344,0.00049660,
 0.00021007,0.00010999,-0.00000206,-0.00001153,0.00000457,-0.00001941,-
 0.00001959,-0.00003495,-0.00000286,0.00000170,-0.00000949,-0.00096153,
 0.00060228,0.00048554,0.00233303,-0.00299412,-0.00352637,0.00000145,-0
 .00028802,-0.00001308,0.10845035,-0.18743245,-0.20481253,-0.10710339,0
 .18727825,0.00029779,-0.00017308,-0.00049734,-0.00002902,0.00024812,0.
 00019633,0.00028884,-0.00009637,0.00007814,-0.00005947,-0.00008762,-0.
 00008321,0.00001651,0.00021685,0.00015114,0.00012192,0.00001015,-0.000
 08634,-0.00010516,0.00059292,-0.00000464,0.00232753,0.00126580,-0.0014
 0953,0.00016170,-0.00081329,-0.00005447,0.00033987,0.00012166,-0.00002
 063,0.00013464,0.00008266,0.00002019,0.00178497,0.00415394,0.00306263,
 0.00167824,0.00001755,-0.00034761,-0.00002915,-0.00001003,-0.00003625,
 0.00003212,-0.00002994,-0.00001576,0.00007700,0.00001465,0.00009977,-0
 .00000649,-0.00001452,-0.00003376,0.00016084,0.00007707,0.00008596,0.0
 0000361,-0.00004650,-0.00004078,0.00002013,-0.00006718,-0.00007817,-0.
 00039106,0.00008514,0.00058185,-0.00008397,0.00000015,0.00005557,0.000
 09925,0.00001628,-0.00001233,0.00003394,0.00001115,-0.00000296,-0.0000
 3598,0.00001041,-0.00000513,-0.00713154,-0.00450724,0.00239511,-0.0007
 8089,0.00000656,0.00090348,-0.00002565,0.00007937,-0.00002314,-0.00335
 789,0.00471580,-0.00307735,0.00294807,0.00051173,0.00133302,0.00268669
 ,-0.00361740,-0.00014394,0.00005452,0.00257316,0.00262378,-0.00240313,
 -0.00026288,-0.00038567,-0.00003312,0.00000369,-0.00000676,-0.00002915
 ,-0.00003435,-0.00001273,0.00002652,0.00000185,-0.00002278,-0.00132192
 ,0.00212037,-0.00494794,0.00164904,-0.00519875,0.00638320,-0.00006478,
 -0.00017978,-0.00001219,0.08656774,-0.17006880,-0.26865599,-0.10078484
 ,0.19008201,0.28511600,0.00000610,0.00000754,0.00010225,0.00000628,-0.
 00003639,-0.00009767,-0.00016772,0.00003214,0.00004698,0.00008376,0.00
 005498,0.00000324,-0.00002775,-0.00002712,0.00000818,-0.00005407,-0.00
 015214,0.00004936,-0.00016971,0.00044664,-0.00014619,0.00010452,-0.000
 08088,0.00010252,0.00001011,-0.00012992,-0.00000437,-0.00001140,-0.000
 00629,-0.00001320,-0.00006105,-0.00001245,0.00003115,-0.00027115,0.000
 80611,0.00133157,-0.00011791,-0.00002453,0.00008520,0.00001535,0.00000
 014,0.00002603,-0.00000961,-0.00000422,-0.00000223,0.00000167,-0.00002
 644,0.00001605,-0.00006861,0.00001484,0.00001120,0.00009690,0.00003102
 ,-0.00023718,0.00000229,0.00000555,-0.00000445,0.00000631,0.00001618,0
 .00002075,0.00012696,-0.00005907,0.00011256,0.00000155,-0.00000753,-0.
 00000702,0.00000192,0.00000043,-0.00001082,-0.00000808,-0.00001928,-0.
 00001040,-0.00002531,-0.00002057,0.00000015,-0.00005710,0.00006500,-0.
 00010974,0.00012746,0.00001604,-0.00012074,0.00000926,0.00000332,-0.00
 001688,-0.00014783,0.00016462,-0.00014328,0.00026042,0.00014323,0.0002
 3799,0.00001209,-0.00012826,0.00001417,-0.00003796,0.00005520,0.000067
 99,0.00009125,0.00000979,0.00003646,0.00000820,-0.00000561,0.00001031,
 -0.00000154,0.00000356,-0.00000774,-0.00000164,0.00000135,-0.00000425,
 0.00072017,-0.00049537,0.00047397,-0.00128626,0.00008881,-0.00020525,0
 .00009255,0.00002800,-0.00012699,-0.15966617,0.07455514,-0.24110268,0.
 00685671,-0.00282629,0.01516176,0.15354900,0.00000137,-0.00005549,-0.0
 0000823,-0.00004353,0.00006816,-0.00002291,-0.00000402,-0.00004974,-0.
 00000118,-0.00000850,0.00000823,0.00000859,0.00001413,0.00001995,0.000
 02319,-0.00006678,-0.00004610,-0.00001319,-0.00011858,0.00020840,-0.00
 007891,0.00003878,-0.00010643,0.00020648,-0.00008671,-0.00006825,0.000
 02544,0.00001102,-0.00005023,-0.00002290,-0.00002353,0.00000751,0.0000
 1941,0.00067300,-0.00133926,-0.00130301,-0.00001041,-0.00002254,0.0000
 1665,-0.00000014,-0.00000509,0.00000221,0.00003019,-0.00001636,-0.0000
 0301,-0.00000631,0.00000743,0.00001275,0.00002048,0.00001427,0.0000004
 8,0.00001462,0.00006094,0.00003679,0.00000315,-0.00000352,-0.00000395,
 -0.00000170,-0.00000931,-0.00000270,0.00000513,-0.00014586,-0.00000981
 ,-0.00000028,-0.00001980,-0.00002756,-0.00000757,-0.00000493,-0.000007
 98,0.00000056,-0.00000447,-0.00000310,-0.00000320,-0.00000086,0.000001
 81,0.00026832,0.00039976,-0.00017141,0.00000498,0.00001710,-0.00001076
 ,0.00000060,0.00000828,-0.00000685,0.00009967,-0.00011880,0.00004956,-
 0.00016228,-0.00006736,-0.00049983,-0.00002831,0.00005047,0.00011812,-
 0.00004222,0.00004002,-0.00028073,0.00001316,0.00001225,-0.00000464,-0
 .00000004,-0.00000369,0.00000322,-0.00000337,-0.00000295,-0.00000955,-
 0.00000017,0.00000224,-0.00000210,0.00033978,-0.00400147,0.00084297,0.
 00060324,0.00544324,0.00132580,0.00052131,-0.00049748,0.00068473,0.085
 60845,-0.05421289,0.10151190,-0.01516700,0.00690458,-0.02181131,-0.072
 48729,0.04758006,0.00009710,-0.00004034,-0.00009565,-0.00003818,0.0000
 5605,0.00003754,-0.00000313,-0.00000912,-0.00001492,-0.00004768,-0.000
 01017,0.00001660,0.00000323,0.00003525,0.00001339,0.00005537,0.0001135
 2,-0.00002691,-0.00008177,-0.00006572,0.00009564,0.00023316,0.00018031
 ,0.00003867,0.00001421,-0.00014272,-0.00002009,0.00002777,0.00005786,-
 0.00001821,0.00002332,-0.00003264,-0.00003314,0.00109635,-0.00047236,0
 .00012530,0.00033896,0.00002586,-0.00001219,-0.00001030,-0.00000287,-0
 .00000219,0.00002339,-0.00001884,0.00000038,-0.00002840,0.00003067,-0.
 00002456,0.00009598,-0.00001149,-0.00001308,-0.00012609,0.00000956,0.0
 0014887,0.00002309,0.00000191,-0.00000108,0.00002790,-0.00000488,-0.00
 000322,-0.00017001,0.00001814,-0.00010599,-0.00001005,0.00000890,0.000
 01448,0.00001595,0.00000519,0.00000534,0.00002225,0.00001023,0.0000098
 5,-0.00003247,-0.00000760,-0.00001345,-0.00040519,-0.00029525,-0.00008
 775,-0.00017180,-0.00000755,0.00015878,-0.00000720,0.00000561,-0.00002
 341,-0.00012394,0.00018604,-0.00007074,-0.00019560,-0.00023931,-0.0004
 5153,0.00031677,-0.00002206,0.00023140,-0.00005525,-0.00008592,-0.0002
 4967,-0.00046209,-0.00004948,-0.00012671,-0.00000526,-0.00000218,0.000
 00125,-0.00000704,-0.00000423,-0.00000577,0.00001066,0.00000161,-0.000
 00732,0.00083620,-0.00150631,0.00112852,-0.00098526,0.00261769,-0.0016
 1318,-0.00017066,0.00013896,0.00012463,-0.20308278,0.06725503,-0.38020
 505,-0.02146272,0.01285712,-0.02306878,0.22442121,-0.08058449,0.404143
 96\\-0.00000082,-0.00000115,-0.00000109,-0.00000014,-0.00000071,0.0000
 0029,-0.00000023,-0.00000002,-0.00000013,-0.00000050,-0.00000065,-0.00
 000079,0.00000127,0.00000208,0.00000088,-0.00000050,-0.00000022,-0.000
 00031,0.00000025,-0.00000205,0.00000066,-0.00000004,-0.00000032,0.0000
 0050,0.00000018,0.00000167,0.00000160,0.00000064,0.00000057,0.00000079
 ,0.00000126,0.00000069,0.00000077,-0.00000052,0.00000031,0.00000013,-0
 .00000037,-0.00000063,0.00000004,-0.00000038,-0.00000053,-0.00000055,-
 0.00000032,0.00000021,-0.00000076,-0.00000032,0.,-0.00000070,0.0000001
 0,0.00000046,-0.00000014,0.00000015,0.00000106,-0.00000036,-0.00000047
 ,-0.00000031,-0.00000018,0.00000030,-0.00000010,0.00000017,-0.00000024
 ,-0.00000065,0.00000157,0.00000058,0.00000005,0.00000102,0.00000064,-0
 .00000027,0.00000130,0.00000015,-0.00000013,0.00000091,0.00000019,-0.0
 0000051,0.00000016,0.00000072,0.00000028,0.00000008,-0.00000007,-0.000
 00038,-0.00000099,-0.00000034,-0.00000078,-0.00000024,0.00000011,-0.00
 000017,-0.00000013,0.00000034,0.00000023,0.00000003,-0.00000027,-0.000
 00021,-0.00000050,-0.00000029,0.00000005,-0.00000075,-0.00000028,0.000
 00023,-0.00000045,-0.00000029,-0.00000104,0.00000014,0.00000012,-0.000
 00099,0.00000043,-0.00000022,-0.00000073,0.00000043,-0.00000003,0.0000
 0080,-0.00000081,-0.00000036,0.00000081,-0.00000087,-0.00000025,0.0000
 0075,-0.00000110,0.00000005,0.00000037,-0.00000046,0.00000008,0.000000
 77,-0.00000021,0.00000011,0.00000116,-0.00000041\\\@


 In the race for quality, there is no finish line.
                               -- David T. Kearns
 Job cpu time:       1 days 21 hours 29 minutes 18.3 seconds.
 Elapsed time:       0 days  1 hours 37 minutes 36.0 seconds.
 File lengths (MBytes):  RWF=   1436 Int=      0 D2E=      0 Chk=     36 Scr=      8
 Normal termination of Gaussian 16 at Sat May 20 19:31:29 2023.
