 Entering Gaussian System, Link 0=g16
 Input=Nic5h3bLMidBTS1_2.gjf
 Output=Nic5h3bLMidBTS1_2.log
 Initial command:
 /sw/contrib/gaussian/g16/A03/g16/l1.exe "/gscratch/scrubbed/gds001/Gau-27646.inp" -scrdir="/gscratch/scrubbed/gds001/"
 Entering Link 1 = /sw/contrib/gaussian/g16/A03/g16/l1.exe PID=     27647.
  
 Copyright (c) 1988,1990,1992,1993,1995,1998,2003,2009,2016,
            Gaussian, Inc.  All Rights Reserved.
  
 This is part of the Gaussian(R) 16 program.  It is based on
 the Gaussian(R) 09 system (copyright 2009, Gaussian, Inc.),
 the Gaussian(R) 03 system (copyright 2003, Gaussian, Inc.),
 the Gaussian(R) 98 system (copyright 1998, Gaussian, Inc.),
 the Gaussian(R) 94 system (copyright 1995, Gaussian, Inc.),
 the Gaussian 92(TM) system (copyright 1992, Gaussian, Inc.),
 the Gaussian 90(TM) system (copyright 1990, Gaussian, Inc.),
 the Gaussian 88(TM) system (copyright 1988, Gaussian, Inc.),
 the Gaussian 86(TM) system (copyright 1986, Carnegie Mellon
 University), and the Gaussian 82(TM) system (copyright 1983,
 Carnegie Mellon University). Gaussian is a federally registered
 trademark of Gaussian, Inc.
  
 This software contains proprietary and confidential information,
 including trade secrets, belonging to Gaussian, Inc.
  
 This software is provided under written license and may be
 used, copied, transmitted, or stored only in accord with that
 written license.
  
 The following legend is applicable only to US Government
 contracts under FAR:
  
                    RESTRICTED RIGHTS LEGEND
  
 Use, reproduction and disclosure by the US Government is
 subject to restrictions as set forth in subparagraphs (a)
 and (c) of the Commercial Computer Software - Restricted
 Rights clause in FAR 52.227-19.
  
 Gaussian, Inc.
 340 Quinnipiac St., Bldg. 40, Wallingford CT 06492
  
  
 ---------------------------------------------------------------
 Warning -- This program may not be used in any manner that
 competes with the business of Gaussian, Inc. or will provide
 assistance to any competitor of Gaussian, Inc.  The licensee
 of this program is prohibited from giving any competitor of
 Gaussian, Inc. access to this program.  By using this program,
 the user acknowledges that Gaussian, Inc. is engaged in the
 business of creating and licensing software in the field of
 computational chemistry and represents and warrants to the
 licensee that it is not a competitor of Gaussian, Inc. and that
 it will not use this program in any manner prohibited above.
 ---------------------------------------------------------------
  

 Cite this work as:
 Gaussian 16, Revision A.03,
 M. J. Frisch, G. W. Trucks, H. B. Schlegel, G. E. Scuseria, 
 M. A. Robb, J. R. Cheeseman, G. Scalmani, V. Barone, 
 G. A. Petersson, H. Nakatsuji, X. Li, M. Caricato, A. V. Marenich, 
 J. Bloino, B. G. Janesko, R. Gomperts, B. Mennucci, H. P. Hratchian, 
 J. V. Ortiz, A. F. Izmaylov, J. L. Sonnenberg, D. Williams-Young, 
 F. Ding, F. Lipparini, F. Egidi, J. Goings, B. Peng, A. Petrone, 
 T. Henderson, D. Ranasinghe, V. G. Zakrzewski, J. Gao, N. Rega, 
 G. Zheng, W. Liang, M. Hada, M. Ehara, K. Toyota, R. Fukuda, 
 J. Hasegawa, M. Ishida, T. Nakajima, Y. Honda, O. Kitao, H. Nakai, 
 T. Vreven, K. Throssell, J. A. Montgomery, Jr., J. E. Peralta, 
 F. Ogliaro, M. J. Bearpark, J. J. Heyd, E. N. Brothers, K. N. Kudin, 
 V. N. Staroverov, T. A. Keith, R. Kobayashi, J. Normand, 
 K. Raghavachari, A. P. Rendell, J. C. Burant, S. S. Iyengar, 
 J. Tomasi, M. Cossi, J. M. Millam, M. Klene, C. Adamo, R. Cammi, 
 J. W. Ochterski, R. L. Martin, K. Morokuma, O. Farkas, 
 J. B. Foresman, and D. J. Fox, Gaussian, Inc., Wallingford CT, 2016.
 
 ******************************************
 Gaussian 16:  ES64L-G16RevA.03 25-Dec-2016
                20-May-2023 
 ******************************************
 %nprocshared=28
 Will use up to   28 processors via shared memory.
 %mem=41GB
 ----------------------------------------------------------------
 # wB97XD/aug-cc-pVDZ opt=(TS,CalcAll,MaxStep=5,NoEigenTest) freq
 ----------------------------------------------------------------
 1/5=1,8=5,10=4,11=1,18=20,26=3,38=1/1,3;
 2/9=110,12=2,17=6,18=5,40=1/2;
 3/5=16,7=10,11=2,25=1,30=1,71=2,74=-58,140=1/1,2,3;
 4//1;
 5/5=2,38=5/2;
 8/6=4,10=90,11=11/1;
 11/6=1,8=1,9=11,15=111,16=1/1,2,10;
 10/6=1/2;
 6/7=2,8=2,9=2,10=2,18=1,28=1/1;
 7/10=1,25=1/1,2,3,16;
 1/5=1,8=5,10=4,11=1,18=20,26=3/3(3);
 2/9=110/2;
 7/8=1,9=1,25=1,44=-1/16;
 99//99;
 2/9=110/2;
 3/5=16,7=10,11=2,25=1,30=1,71=2,74=-58,140=1/1,2,3;
 4/5=5,16=3,69=1/1;
 5/5=2,38=5/2;
 8/6=4,10=90,11=11/1;
 11/6=1,8=1,9=11,15=111,16=1/1,2,10;
 10/6=1/2;
 7/10=1,25=1/1,2,3,16;
 1/5=1,8=5,10=4,11=1,18=20,26=3/3(-8);
 2/9=110/2;
 6/7=2,8=2,9=2,10=2,18=1,19=2,28=1/1;
 7/8=1,9=1,25=1,44=-1/16;
 99//99;
 ----
 blah
 ----
 Symbolic Z-matrix:
 Charge =  1 Multiplicity = 1
 N                     2.25059  -0.52623   0.44589 
 C                     1.90057   0.16335  -0.81742 
 C                     1.40747  -0.96326  -1.76264 
 C                     1.70519  -2.27658  -1.01171 
 C                     2.72416  -1.85714   0.03986 
 C                     0.9102    1.27419  -0.55651 
 C                    -0.39912   0.96445  -0.20226 
 N                    -1.31319   1.88599   0.10591 
 C                    -0.98102   3.18383   0.06282 
 C                     0.29311   3.5935   -0.29976 
 C                     1.24894   2.62461  -0.60802 
 O                    -3.30867   0.54198   0.72097 
 O                     0.23804  -0.84065   2.25724 
 H                     2.76626  -2.52406   0.90973 
 H                     2.08805  -3.06153  -1.67148 
 H                     0.79602  -2.6546   -0.52787 
 H                     1.95453  -0.90807  -2.70984 
 H                     0.34372  -0.86512  -2.00418 
 H                     3.73916  -1.79245  -0.394 
 H                     2.81627   0.61386  -1.24026 
 H                    -0.73542  -0.071    -0.1642 
 H                    -1.76042   3.89831   0.32334 
 H                     0.53387   4.65391  -0.33378 
 H                     2.26006   2.92329  -0.88708 
 C                     3.21632   0.21665   1.24906 
 H                    -2.50862   1.28377   0.4914 
 H                     0.96135  -0.75398   1.56662 
 H                     0.64273  -1.13493   3.07594 
 H                    -2.81666  -0.39562   1.24389 
 H                    -4.03638   0.93237   1.21374 
 O                    -2.19869  -1.41818   1.68358 
 H                    -2.15503  -2.08306   0.94245 
 H                    -1.24927  -1.21597   1.94764 
 H                     3.45208  -0.35025   2.15786 
 H                     2.7896    1.18166   1.54947 
 H                     4.15585   0.39658   0.69759 
 O                    -1.95721  -2.85652  -0.47952 
 H                    -2.3447   -2.25102  -1.14334 
 H                    -2.3244   -3.72871  -0.64296 
 O                    -2.93479  -0.72272  -1.81215 
 H                    -3.40277  -0.20572  -1.14057 
 H                    -3.39204  -0.57888  -2.6441 
 
 Add virtual bond connecting atoms H29        and O12        Dist= 2.23D+00.
 Add virtual bond connecting atoms O31        and H29        Dist= 2.41D+00.
 Add virtual bond connecting atoms H26        and N8         Dist= 2.63D+00.
 Add virtual bond connecting atoms N1         and H27        Dist= 3.26D+00.
 Add virtual bond connecting atoms H33        and O13        Dist= 2.96D+00.
 Add virtual bond connecting atoms O37        and H32        Dist= 3.08D+00.
 Add virtual bond connecting atoms O40        and H38        Dist= 3.34D+00.

 GradGradGradGradGradGradGradGradGradGradGradGradGradGradGradGradGradGrad
 Berny optimization.
 Initialization pass.
                           ----------------------------
                           !    Initial Parameters    !
                           ! (Angstroms and Degrees)  !
 --------------------------                            --------------------------
 ! Name  Definition              Value          Derivative Info.                !
 --------------------------------------------------------------------------------
 ! R1    R(1,2)                  1.4812         calculate D2E/DX2 analytically  !
 ! R2    R(1,5)                  1.4698         calculate D2E/DX2 analytically  !
 ! R3    R(1,25)                 1.4593         calculate D2E/DX2 analytically  !
 ! R4    R(1,27)                 1.7234         calculate D2E/DX2 analytically  !
 ! R5    R(2,3)                  1.5511         calculate D2E/DX2 analytically  !
 ! R6    R(2,6)                  1.5109         calculate D2E/DX2 analytically  !
 ! R7    R(2,20)                 1.1047         calculate D2E/DX2 analytically  !
 ! R8    R(3,4)                  1.5419         calculate D2E/DX2 analytically  !
 ! R9    R(3,17)                 1.0952         calculate D2E/DX2 analytically  !
 ! R10   R(3,18)                 1.0952         calculate D2E/DX2 analytically  !
 ! R11   R(4,5)                  1.5232         calculate D2E/DX2 analytically  !
 ! R12   R(4,15)                 1.0945         calculate D2E/DX2 analytically  !
 ! R13   R(4,16)                 1.0971         calculate D2E/DX2 analytically  !
 ! R14   R(5,14)                 1.0969         calculate D2E/DX2 analytically  !
 ! R15   R(5,19)                 1.1057         calculate D2E/DX2 analytically  !
 ! R16   R(6,7)                  1.3913         calculate D2E/DX2 analytically  !
 ! R17   R(6,11)                 1.3932         calculate D2E/DX2 analytically  !
 ! R18   R(7,8)                  1.3341         calculate D2E/DX2 analytically  !
 ! R19   R(7,21)                 1.0894         calculate D2E/DX2 analytically  !
 ! R20   R(8,9)                  1.3404         calculate D2E/DX2 analytically  !
 ! R21   R(8,26)                 1.3929         calculate D2E/DX2 analytically  !
 ! R22   R(9,10)                 1.3866         calculate D2E/DX2 analytically  !
 ! R23   R(9,22)                 1.0889         calculate D2E/DX2 analytically  !
 ! R24   R(10,11)                1.3955         calculate D2E/DX2 analytically  !
 ! R25   R(10,23)                1.0879         calculate D2E/DX2 analytically  !
 ! R26   R(11,24)                1.0906         calculate D2E/DX2 analytically  !
 ! R27   R(12,26)                1.1149         calculate D2E/DX2 analytically  !
 ! R28   R(12,29)                1.1809         calculate D2E/DX2 analytically  !
 ! R29   R(12,30)                0.9617         calculate D2E/DX2 analytically  !
 ! R30   R(13,27)                1.0038         calculate D2E/DX2 analytically  !
 ! R31   R(13,28)                0.9595         calculate D2E/DX2 analytically  !
 ! R32   R(13,33)                1.5649         calculate D2E/DX2 analytically  !
 ! R33   R(25,34)                1.0968         calculate D2E/DX2 analytically  !
 ! R34   R(25,35)                1.0971         calculate D2E/DX2 analytically  !
 ! R35   R(25,36)                1.1042         calculate D2E/DX2 analytically  !
 ! R36   R(29,31)                1.2731         calculate D2E/DX2 analytically  !
 ! R37   R(31,32)                0.9966         calculate D2E/DX2 analytically  !
 ! R38   R(31,33)                1.006          calculate D2E/DX2 analytically  !
 ! R39   R(32,37)                1.6308         calculate D2E/DX2 analytically  !
 ! R40   R(37,38)                0.9785         calculate D2E/DX2 analytically  !
 ! R41   R(37,39)                0.9603         calculate D2E/DX2 analytically  !
 ! R42   R(38,40)                1.7695         calculate D2E/DX2 analytically  !
 ! R43   R(40,41)                0.9682         calculate D2E/DX2 analytically  !
 ! R44   R(40,42)                0.9602         calculate D2E/DX2 analytically  !
 ! A1    A(2,1,5)              105.1934         calculate D2E/DX2 analytically  !
 ! A2    A(2,1,25)             112.8803         calculate D2E/DX2 analytically  !
 ! A3    A(2,1,27)             116.065          calculate D2E/DX2 analytically  !
 ! A4    A(5,1,25)             113.5632         calculate D2E/DX2 analytically  !
 ! A5    A(5,1,27)             107.5176         calculate D2E/DX2 analytically  !
 ! A6    A(25,1,27)            101.7955         calculate D2E/DX2 analytically  !
 ! A7    A(1,2,3)              104.876          calculate D2E/DX2 analytically  !
 ! A8    A(1,2,6)              110.4805         calculate D2E/DX2 analytically  !
 ! A9    A(1,2,20)             108.6898         calculate D2E/DX2 analytically  !
 ! A10   A(3,2,6)              115.5221         calculate D2E/DX2 analytically  !
 ! A11   A(3,2,20)             109.0562         calculate D2E/DX2 analytically  !
 ! A12   A(6,2,20)             108.036          calculate D2E/DX2 analytically  !
 ! A13   A(2,3,4)              105.0997         calculate D2E/DX2 analytically  !
 ! A14   A(2,3,17)             109.3681         calculate D2E/DX2 analytically  !
 ! A15   A(2,3,18)             112.2149         calculate D2E/DX2 analytically  !
 ! A16   A(4,3,17)             111.5726         calculate D2E/DX2 analytically  !
 ! A17   A(4,3,18)             111.7943         calculate D2E/DX2 analytically  !
 ! A18   A(17,3,18)            106.8514         calculate D2E/DX2 analytically  !
 ! A19   A(3,4,5)              103.3475         calculate D2E/DX2 analytically  !
 ! A20   A(3,4,15)             112.6326         calculate D2E/DX2 analytically  !
 ! A21   A(3,4,16)             110.3812         calculate D2E/DX2 analytically  !
 ! A22   A(5,4,15)             112.3109         calculate D2E/DX2 analytically  !
 ! A23   A(5,4,16)             110.1698         calculate D2E/DX2 analytically  !
 ! A24   A(15,4,16)            107.9756         calculate D2E/DX2 analytically  !
 ! A25   A(1,5,4)              102.9745         calculate D2E/DX2 analytically  !
 ! A26   A(1,5,14)             110.1107         calculate D2E/DX2 analytically  !
 ! A27   A(1,5,19)             110.5583         calculate D2E/DX2 analytically  !
 ! A28   A(4,5,14)             113.937          calculate D2E/DX2 analytically  !
 ! A29   A(4,5,19)             111.0578         calculate D2E/DX2 analytically  !
 ! A30   A(14,5,19)            108.1496         calculate D2E/DX2 analytically  !
 ! A31   A(2,6,7)              119.8113         calculate D2E/DX2 analytically  !
 ! A32   A(2,6,11)             123.1525         calculate D2E/DX2 analytically  !
 ! A33   A(7,6,11)             117.0011         calculate D2E/DX2 analytically  !
 ! A34   A(6,7,8)              123.3558         calculate D2E/DX2 analytically  !
 ! A35   A(6,7,21)             120.7315         calculate D2E/DX2 analytically  !
 ! A36   A(8,7,21)             115.9126         calculate D2E/DX2 analytically  !
 ! A37   A(7,8,9)              119.4477         calculate D2E/DX2 analytically  !
 ! A38   A(7,8,26)             110.6892         calculate D2E/DX2 analytically  !
 ! A39   A(9,8,26)             129.8064         calculate D2E/DX2 analytically  !
 ! A40   A(8,9,10)             121.4797         calculate D2E/DX2 analytically  !
 ! A41   A(8,9,22)             116.7585         calculate D2E/DX2 analytically  !
 ! A42   A(10,9,22)            121.7617         calculate D2E/DX2 analytically  !
 ! A43   A(9,10,11)            118.8172         calculate D2E/DX2 analytically  !
 ! A44   A(9,10,23)            119.9665         calculate D2E/DX2 analytically  !
 ! A45   A(11,10,23)           121.2151         calculate D2E/DX2 analytically  !
 ! A46   A(6,11,10)            119.8856         calculate D2E/DX2 analytically  !
 ! A47   A(6,11,24)            120.0216         calculate D2E/DX2 analytically  !
 ! A48   A(10,11,24)           120.0927         calculate D2E/DX2 analytically  !
 ! A49   A(26,12,29)           108.6899         calculate D2E/DX2 analytically  !
 ! A50   A(26,12,30)           112.2367         calculate D2E/DX2 analytically  !
 ! A51   A(29,12,30)           114.2469         calculate D2E/DX2 analytically  !
 ! A52   A(27,13,28)           108.035          calculate D2E/DX2 analytically  !
 ! A53   A(27,13,33)           124.7115         calculate D2E/DX2 analytically  !
 ! A54   A(28,13,33)           119.7438         calculate D2E/DX2 analytically  !
 ! A55   A(1,25,34)            109.5843         calculate D2E/DX2 analytically  !
 ! A56   A(1,25,35)            109.9425         calculate D2E/DX2 analytically  !
 ! A57   A(1,25,36)            111.7875         calculate D2E/DX2 analytically  !
 ! A58   A(34,25,35)           108.1417         calculate D2E/DX2 analytically  !
 ! A59   A(34,25,36)           108.3711         calculate D2E/DX2 analytically  !
 ! A60   A(35,25,36)           108.9285         calculate D2E/DX2 analytically  !
 ! A61   A(8,26,12)            163.8346         calculate D2E/DX2 analytically  !
 ! A62   A(29,31,32)           107.4744         calculate D2E/DX2 analytically  !
 ! A63   A(29,31,33)           112.7869         calculate D2E/DX2 analytically  !
 ! A64   A(32,31,33)           106.7355         calculate D2E/DX2 analytically  !
 ! A65   A(32,37,38)           104.4781         calculate D2E/DX2 analytically  !
 ! A66   A(32,37,39)           122.193          calculate D2E/DX2 analytically  !
 ! A67   A(38,37,39)           107.1662         calculate D2E/DX2 analytically  !
 ! A68   A(37,38,40)           157.3585         calculate D2E/DX2 analytically  !
 ! A69   A(38,40,41)           111.1136         calculate D2E/DX2 analytically  !
 ! A70   A(38,40,42)           128.0017         calculate D2E/DX2 analytically  !
 ! A71   A(41,40,42)           106.909          calculate D2E/DX2 analytically  !
 ! A72   L(1,27,13,7,-1)       180.5207         calculate D2E/DX2 analytically  !
 ! A73   L(12,29,31,2,-1)      174.1595         calculate D2E/DX2 analytically  !
 ! A74   L(31,32,37,1,-1)      171.3881         calculate D2E/DX2 analytically  !
 ! A75   L(13,33,31,7,-1)      175.7302         calculate D2E/DX2 analytically  !
 ! A76   L(1,27,13,7,-2)       183.744          calculate D2E/DX2 analytically  !
 ! A77   L(12,29,31,2,-2)      183.6488         calculate D2E/DX2 analytically  !
 ! A78   L(31,32,37,1,-2)      191.0901         calculate D2E/DX2 analytically  !
 ! A79   L(13,33,31,7,-2)      179.2062         calculate D2E/DX2 analytically  !
 ! D1    D(5,1,2,3)             32.0115         calculate D2E/DX2 analytically  !
 ! D2    D(5,1,2,6)            157.1176         calculate D2E/DX2 analytically  !
 ! D3    D(5,1,2,20)           -84.5067         calculate D2E/DX2 analytically  !
 ! D4    D(25,1,2,3)           156.3597         calculate D2E/DX2 analytically  !
 ! D5    D(25,1,2,6)           -78.5342         calculate D2E/DX2 analytically  !
 ! D6    D(25,1,2,20)           39.8415         calculate D2E/DX2 analytically  !
 ! D7    D(27,1,2,3)           -86.6771         calculate D2E/DX2 analytically  !
 ! D8    D(27,1,2,6)            38.429          calculate D2E/DX2 analytically  !
 ! D9    D(27,1,2,20)          156.8048         calculate D2E/DX2 analytically  !
 ! D10   D(2,1,5,4)            -43.9054         calculate D2E/DX2 analytically  !
 ! D11   D(2,1,5,14)          -165.7595         calculate D2E/DX2 analytically  !
 ! D12   D(2,1,5,19)            74.7938         calculate D2E/DX2 analytically  !
 ! D13   D(25,1,5,4)          -167.8213         calculate D2E/DX2 analytically  !
 ! D14   D(25,1,5,14)           70.3245         calculate D2E/DX2 analytically  !
 ! D15   D(25,1,5,19)          -49.1222         calculate D2E/DX2 analytically  !
 ! D16   D(27,1,5,4)            80.3695         calculate D2E/DX2 analytically  !
 ! D17   D(27,1,5,14)          -41.4846         calculate D2E/DX2 analytically  !
 ! D18   D(27,1,5,19)         -160.9313         calculate D2E/DX2 analytically  !
 ! D19   D(2,1,13,28)         -168.9427         calculate D2E/DX2 analytically  !
 ! D20   D(2,1,13,33)           40.1524         calculate D2E/DX2 analytically  !
 ! D21   D(5,1,13,28)           72.6801         calculate D2E/DX2 analytically  !
 ! D22   D(5,1,13,33)          -78.2248         calculate D2E/DX2 analytically  !
 ! D23   D(25,1,13,28)         -46.6829         calculate D2E/DX2 analytically  !
 ! D24   D(25,1,13,33)         162.4122         calculate D2E/DX2 analytically  !
 ! D25   D(2,1,25,34)         -178.8148         calculate D2E/DX2 analytically  !
 ! D26   D(2,1,25,35)           62.4569         calculate D2E/DX2 analytically  !
 ! D27   D(2,1,25,36)          -58.6515         calculate D2E/DX2 analytically  !
 ! D28   D(5,1,25,34)          -59.1857         calculate D2E/DX2 analytically  !
 ! D29   D(5,1,25,35)         -177.914          calculate D2E/DX2 analytically  !
 ! D30   D(5,1,25,36)           60.9776         calculate D2E/DX2 analytically  !
 ! D31   D(27,1,25,34)          56.0623         calculate D2E/DX2 analytically  !
 ! D32   D(27,1,25,35)         -62.666          calculate D2E/DX2 analytically  !
 ! D33   D(27,1,25,36)         176.2257         calculate D2E/DX2 analytically  !
 ! D34   D(1,2,3,4)             -7.8236         calculate D2E/DX2 analytically  !
 ! D35   D(1,2,3,17)          -127.7258         calculate D2E/DX2 analytically  !
 ! D36   D(1,2,3,18)           113.8835         calculate D2E/DX2 analytically  !
 ! D37   D(6,2,3,4)           -129.6936         calculate D2E/DX2 analytically  !
 ! D38   D(6,2,3,17)           110.4043         calculate D2E/DX2 analytically  !
 ! D39   D(6,2,3,18)            -7.9864         calculate D2E/DX2 analytically  !
 ! D40   D(20,2,3,4)           108.4422         calculate D2E/DX2 analytically  !
 ! D41   D(20,2,3,17)          -11.46           calculate D2E/DX2 analytically  !
 ! D42   D(20,2,3,18)         -129.8507         calculate D2E/DX2 analytically  !
 ! D43   D(1,2,6,7)            -70.4225         calculate D2E/DX2 analytically  !
 ! D44   D(1,2,6,11)           107.3576         calculate D2E/DX2 analytically  !
 ! D45   D(3,2,6,7)             48.3943         calculate D2E/DX2 analytically  !
 ! D46   D(3,2,6,11)          -133.8257         calculate D2E/DX2 analytically  !
 ! D47   D(20,2,6,7)           170.8034         calculate D2E/DX2 analytically  !
 ! D48   D(20,2,6,11)          -11.4166         calculate D2E/DX2 analytically  !
 ! D49   D(2,3,4,5)            -17.9743         calculate D2E/DX2 analytically  !
 ! D50   D(2,3,4,15)          -139.4171         calculate D2E/DX2 analytically  !
 ! D51   D(2,3,4,16)            99.8132         calculate D2E/DX2 analytically  !
 ! D52   D(17,3,4,5)           100.4532         calculate D2E/DX2 analytically  !
 ! D53   D(17,3,4,15)          -20.9896         calculate D2E/DX2 analytically  !
 ! D54   D(17,3,4,16)         -141.7593         calculate D2E/DX2 analytically  !
 ! D55   D(18,3,4,5)          -139.9551         calculate D2E/DX2 analytically  !
 ! D56   D(18,3,4,15)           98.6021         calculate D2E/DX2 analytically  !
 ! D57   D(18,3,4,16)          -22.1676         calculate D2E/DX2 analytically  !
 ! D58   D(3,4,5,1)             37.6433         calculate D2E/DX2 analytically  !
 ! D59   D(3,4,5,14)           156.8737         calculate D2E/DX2 analytically  !
 ! D60   D(3,4,5,19)           -80.7067         calculate D2E/DX2 analytically  !
 ! D61   D(15,4,5,1)           159.3028         calculate D2E/DX2 analytically  !
 ! D62   D(15,4,5,14)          -81.4668         calculate D2E/DX2 analytically  !
 ! D63   D(15,4,5,19)           40.9528         calculate D2E/DX2 analytically  !
 ! D64   D(16,4,5,1)           -80.2919         calculate D2E/DX2 analytically  !
 ! D65   D(16,4,5,14)           38.9385         calculate D2E/DX2 analytically  !
 ! D66   D(16,4,5,19)          161.3581         calculate D2E/DX2 analytically  !
 ! D67   D(2,6,7,8)            176.6806         calculate D2E/DX2 analytically  !
 ! D68   D(2,6,7,21)            -3.425          calculate D2E/DX2 analytically  !
 ! D69   D(11,6,7,8)            -1.2335         calculate D2E/DX2 analytically  !
 ! D70   D(11,6,7,21)          178.661          calculate D2E/DX2 analytically  !
 ! D71   D(2,6,11,10)         -177.2961         calculate D2E/DX2 analytically  !
 ! D72   D(2,6,11,24)            2.5923         calculate D2E/DX2 analytically  !
 ! D73   D(7,6,11,10)            0.5421         calculate D2E/DX2 analytically  !
 ! D74   D(7,6,11,24)         -179.5695         calculate D2E/DX2 analytically  !
 ! D75   D(6,7,8,9)              0.8696         calculate D2E/DX2 analytically  !
 ! D76   D(6,7,8,26)          -176.6543         calculate D2E/DX2 analytically  !
 ! D77   D(21,7,8,9)          -179.0295         calculate D2E/DX2 analytically  !
 ! D78   D(21,7,8,26)            3.4465         calculate D2E/DX2 analytically  !
 ! D79   D(7,8,9,10)             0.2099         calculate D2E/DX2 analytically  !
 ! D80   D(7,8,9,22)          -179.9572         calculate D2E/DX2 analytically  !
 ! D81   D(26,8,9,10)          177.1941         calculate D2E/DX2 analytically  !
 ! D82   D(26,8,9,22)           -2.973          calculate D2E/DX2 analytically  !
 ! D83   D(7,8,26,12)           -4.4154         calculate D2E/DX2 analytically  !
 ! D84   D(9,8,26,12)          178.3916         calculate D2E/DX2 analytically  !
 ! D85   D(8,9,10,11)           -0.8465         calculate D2E/DX2 analytically  !
 ! D86   D(8,9,10,23)          179.5366         calculate D2E/DX2 analytically  !
 ! D87   D(22,9,10,11)         179.3289         calculate D2E/DX2 analytically  !
 ! D88   D(22,9,10,23)          -0.288          calculate D2E/DX2 analytically  !
 ! D89   D(9,10,11,6)            0.4377         calculate D2E/DX2 analytically  !
 ! D90   D(9,10,11,24)        -179.4506         calculate D2E/DX2 analytically  !
 ! D91   D(23,10,11,6)        -179.9503         calculate D2E/DX2 analytically  !
 ! D92   D(23,10,11,24)          0.1614         calculate D2E/DX2 analytically  !
 ! D93   D(29,12,26,8)          40.8385         calculate D2E/DX2 analytically  !
 ! D94   D(30,12,26,8)         168.1876         calculate D2E/DX2 analytically  !
 ! D95   D(26,12,31,32)       -101.4815         calculate D2E/DX2 analytically  !
 ! D96   D(26,12,31,33)         13.9209         calculate D2E/DX2 analytically  !
 ! D97   D(30,12,31,32)        131.262          calculate D2E/DX2 analytically  !
 ! D98   D(30,12,31,33)       -113.3357         calculate D2E/DX2 analytically  !
 ! D99   D(27,13,31,29)        -78.6792         calculate D2E/DX2 analytically  !
 ! D100  D(27,13,31,32)         37.6395         calculate D2E/DX2 analytically  !
 ! D101  D(28,13,31,29)        134.5958         calculate D2E/DX2 analytically  !
 ! D102  D(28,13,31,32)       -109.0855         calculate D2E/DX2 analytically  !
 ! D103  D(29,31,37,38)          3.6223         calculate D2E/DX2 analytically  !
 ! D104  D(29,31,37,39)       -117.7765         calculate D2E/DX2 analytically  !
 ! D105  D(33,31,37,38)       -113.6686         calculate D2E/DX2 analytically  !
 ! D106  D(33,31,37,39)        124.9326         calculate D2E/DX2 analytically  !
 ! D107  D(32,37,38,40)         19.5434         calculate D2E/DX2 analytically  !
 ! D108  D(39,37,38,40)        150.5135         calculate D2E/DX2 analytically  !
 ! D109  D(37,38,40,41)        -38.4665         calculate D2E/DX2 analytically  !
 ! D110  D(37,38,40,42)       -172.6832         calculate D2E/DX2 analytically  !
 ! D111  D(38,40,41,42)       -143.8232         calculate D2E/DX2 analytically  !
 --------------------------------------------------------------------------------
 Trust Radius=5.00D-02 FncErr=1.00D-07 GrdErr=1.00D-06 EigMax=2.50D+02 EigMin=1.00D-04
 Number of steps in this run=    244 maximum allowed number of steps=    252.
 Search for a saddle point of order  1.
 GradGradGradGradGradGradGradGradGradGradGradGradGradGradGradGradGradGrad

                          Input orientation:                          
 ---------------------------------------------------------------------
 Center     Atomic      Atomic             Coordinates (Angstroms)
 Number     Number       Type             X           Y           Z
 ---------------------------------------------------------------------
      1          7           0        2.250591   -0.526226    0.445887
      2          6           0        1.900571    0.163345   -0.817422
      3          6           0        1.407467   -0.963258   -1.762637
      4          6           0        1.705188   -2.276578   -1.011708
      5          6           0        2.724156   -1.857141    0.039861
      6          6           0        0.910198    1.274186   -0.556512
      7          6           0       -0.399121    0.964453   -0.202263
      8          7           0       -1.313193    1.885991    0.105910
      9          6           0       -0.981018    3.183833    0.062822
     10          6           0        0.293108    3.593500   -0.299763
     11          6           0        1.248945    2.624611   -0.608023
     12          8           0       -3.308667    0.541979    0.720965
     13          8           0        0.238037   -0.840652    2.257240
     14          1           0        2.766255   -2.524063    0.909727
     15          1           0        2.088048   -3.061531   -1.671480
     16          1           0        0.796015   -2.654596   -0.527867
     17          1           0        1.954527   -0.908066   -2.709836
     18          1           0        0.343715   -0.865115   -2.004179
     19          1           0        3.739164   -1.792447   -0.394004
     20          1           0        2.816271    0.613856   -1.240256
     21          1           0       -0.735416   -0.070996   -0.164203
     22          1           0       -1.760416    3.898306    0.323340
     23          1           0        0.533865    4.653914   -0.333783
     24          1           0        2.260059    2.923285   -0.887078
     25          6           0        3.216323    0.216645    1.249063
     26          1           0       -2.508615    1.283769    0.491402
     27          1           0        0.961350   -0.753981    1.566623
     28          1           0        0.642730   -1.134934    3.075941
     29          1           0       -2.816660   -0.395616    1.243892
     30          1           0       -4.036384    0.932368    1.213739
     31          8           0       -2.198689   -1.418179    1.683579
     32          1           0       -2.155028   -2.083058    0.942454
     33          1           0       -1.249273   -1.215965    1.947639
     34          1           0        3.452080   -0.350246    2.157862
     35          1           0        2.789597    1.181656    1.549474
     36          1           0        4.155854    0.396575    0.697593
     37          8           0       -1.957207   -2.856524   -0.479523
     38          1           0       -2.344698   -2.251015   -1.143341
     39          1           0       -2.324396   -3.728705   -0.642957
     40          8           0       -2.934788   -0.722716   -1.812152
     41          1           0       -3.402773   -0.205717   -1.140565
     42          1           0       -3.392044   -0.578877   -2.644103
 ---------------------------------------------------------------------
                    Distance matrix (angstroms):
                    1          2          3          4          5
     1  N    0.000000
     2  C    1.481206   0.000000
     3  C    2.404045   1.551070   0.000000
     4  C    2.342174   2.455432   1.541863   0.000000
     5  C    1.469849   2.344267   2.404516   1.523161   0.000000
     6  C    2.458239   1.510920   2.590013   3.667034   3.667603
     7  C    3.108568   2.511728   3.068322   3.948113   4.216026
     8  N    4.316820   3.761427   4.360238   5.261813   5.505959
     9  C    4.935035   4.266349   5.122063   6.179515   6.256218
    10  C    4.621675   3.823333   4.913842   6.079363   5.977861
    11  C    3.470129   2.554661   3.772409   4.938904   4.762573
    12  O    5.667634   5.444829   5.538586   6.007093   6.527988
    13  O    2.725846   3.636698   4.188318   3.860108   3.482931
    14  H    2.114807   3.309776   3.379933   2.208851   1.096916
    15  H    3.307179   3.341315   2.207770   1.094547   2.187208
    16  H    2.755712   3.040506   2.181549   1.097085   2.162401
    17  H    3.192498   2.175331   1.095220   2.195139   3.008971
    18  H    3.123115   2.211317   1.095236   2.197916   3.290701
    19  H    2.127107   2.717504   2.827989   2.180137   1.105742
    20  H    2.112548   1.104652   2.178279   3.105052   2.784423
    21  H    3.081506   2.725810   2.818345   3.396970   3.898794
    22  H    5.973247   5.352952   6.166165   7.205689   7.301843
    23  H    5.512611   4.718792   5.861521   7.061395   6.879740
    24  H    3.698109   2.784125   4.074154   5.230869   4.891531
    25  C    1.459311   2.450389   3.706004   3.689278   2.450507
    26  H    5.091974   4.733845   5.046337   5.717652   6.119730
    27  H    1.723387   2.721634   3.365530   3.085350   2.579816
    28  H    3.142121   4.292548   4.901646   4.375048   3.751226
    29  H    5.131365   5.178197   5.215811   5.391925   5.855458
    30  H    6.499473   6.321744   6.487505   6.943745   7.407041
    31  O    4.703568   5.055705   5.008764   4.820962   5.208541
    32  H    4.698913   4.958969   4.611165   4.330989   4.967107
    33  H    3.870407   4.412434   4.570369   4.314102   4.454084
    34  H    2.098905   3.394594   4.463915   4.099824   2.699358
    35  H    2.103638   2.725715   4.181031   4.437902   3.393744
    36  H    2.131888   2.726897   3.931349   4.009142   2.749838
    37  O    4.898187   4.910828   4.068399   3.746024   4.814944
    38  H    5.159188   4.894657   4.015045   4.052105   5.219999
    39  H    5.689636   5.747072   4.777885   4.299093   5.427418
    40  O    5.659108   5.015505   4.349194   4.958283   6.061396
    41  H    5.880483   5.325982   4.909099   5.513287   6.454445
    42  H    6.433517   5.647958   4.894899   5.615040   6.800406
                    6          7          8          9         10
     6  C    0.000000
     7  C    1.391310   0.000000
     8  N    2.399287   1.334065   0.000000
     9  C    2.758083   2.309658   1.340370   0.000000
    10  C    2.413698   2.720400   2.379151   1.386612   0.000000
    11  C    1.393216   2.374213   2.760401   2.394890   1.395491
    12  O    4.468433   3.081605   2.483259   3.581968   4.829746
    13  O    3.583510   3.116654   3.803829   4.743210   5.118887
    14  H    4.474539   4.840028   6.061072   6.880362   6.708495
    15  H    4.629139   4.955114   6.261432   7.171579   7.028005
    16  H    3.930545   3.825165   5.046520   6.131396   6.272452
    17  H    3.238773   3.915854   5.139375   5.748799   5.369624
    18  H    2.644476   2.673205   3.842708   4.735123   4.773557
    19  H    4.175368   4.976210   6.269540   6.874021   6.394733
    20  H    2.129943   3.396924   4.525811   4.766781   4.016112
    21  H    2.161358   1.089356   2.058297   3.271968   3.808513
    22  H    3.846079   3.276717   2.072847   1.088946   2.167516
    23  H    3.407902   3.807871   3.356539   2.147860   1.087933
    24  H    2.156601   3.373015   3.850991   3.387444   2.159403
    25  C    3.113954   3.966989   4.960850   5.275324   4.727282
    26  H    3.575821   2.243457   1.392950   2.475374   3.716242
    27  H    2.936627   2.816532   3.778449   4.641184   4.778131
    28  H    4.366934   4.029826   4.666123   5.510644   5.820284
    29  H    4.463089   3.128202   2.959923   4.192489   5.288343
    30  H    5.264912   3.903303   3.090704   3.965976   5.302529
    31  O    4.683163   3.531541   3.767052   5.028727   5.937981
    32  H    4.786815   3.698771   4.142685   5.467375   6.305536
    33  H    4.139437   3.177902   3.608072   4.794029   5.528174
    34  H    4.058050   4.704293   5.649698   6.044110   5.618911
    35  H    2.824160   3.644679   4.406002   4.520662   3.933081
    36  H    3.588490   4.677609   5.699028   5.878707   5.112324
    37  O    5.028986   4.135743   4.821715   6.142719   6.833670
    38  H    4.833814   3.874291   4.442910   5.731669   6.467457
    39  H    5.958103   5.091820   5.753968   7.077144   7.783559
    40  O    4.510894   3.444980   3.621310   4.753301   5.597888
    41  H    4.597059   3.357325   3.208627   4.336137   5.366613
    42  H    5.128466   4.159572   4.237897   5.224794   6.040282
                   11         12         13         14         15
    11  C    0.000000
    12  O    5.184148   0.000000
    13  O    4.608656   4.104987   0.000000
    14  H    5.578050   6.807417   3.322883   0.000000
    15  H    5.845275   6.916185   4.877467   2.722401   0.000000
    16  H    5.299207   5.350335   3.370245   2.442450   1.772793
    17  H    4.170764   6.447809   5.255733   4.046182   2.394457
    18  H    3.866120   4.769299   4.262799   4.136624   2.824470
    19  H    5.075174   7.507638   4.493651   1.783684   2.443093
    20  H    2.626664   6.431673   4.582070   3.804138   3.771569
    21  H    3.376531   2.789423   2.720913   4.408238   4.380312
    22  H    3.397939   3.717542   5.494680   7.879177   8.199348
    23  H    2.169013   5.725867   6.082037   7.619267   7.983296
    24  H    1.090610   6.266349   5.304953   5.758328   6.038452
    25  C    3.621829   6.554405   3.317301   2.798069   4.533102
    26  H    4.138339   1.114915   3.895567   6.519113   6.684983
    27  H    4.028235   4.541772   1.003815   2.611970   4.132741
    28  H    5.298421   4.896069   0.959505   3.336393   5.323413
    29  H    5.392634   1.180935   3.249016   5.984220   6.297830
    30  H    5.840994   0.961666   4.743751   7.636441   7.860304
    31  O    5.786343   2.449673   2.569097   5.145143   5.686224
    32  H    6.012750   2.875893   2.999832   4.941111   5.078755
    33  H    5.246192   2.972575   1.564865   4.348890   5.257551
    34  H    4.621006   6.969106   3.252760   2.598784   4.886257
    35  H    3.018364   6.187442   3.331834   3.760608   5.373207
    36  H    3.888303   7.465974   4.394601   3.241313   4.674059
    37  O    6.351280   3.849343   4.046320   4.934738   4.222189
    38  H    6.080507   3.493664   4.497065   5.514661   4.537081
    39  H    7.289349   4.589969   4.828877   5.456805   4.579590
    40  O    5.491643   2.855857   5.161461   6.569275   5.542448
    41  H    5.471091   2.008283   5.020331   6.901835   6.211816
    42  H    5.995560   3.547810   6.104849   7.371438   6.094340
                   16         17         18         19         20
    16  H    0.000000
    17  H    3.025476   0.000000
    18  H    2.363539   1.759122   0.000000
    19  H    3.069747   3.054527   3.870618   0.000000
    20  H    3.907904   2.284407   2.980682   2.712594   0.000000
    21  H    3.025313   3.796937   2.276106   4.799799   3.773777
    22  H    7.085225   6.789858   5.703936   7.946360   5.846239
    23  H    7.315785   6.212852   5.769407   7.199523   4.727911
    24  H    5.777994   4.253827   4.390019   4.966790   2.401576
    25  C    4.154443   4.304647   4.472769   2.647543   2.552357
    26  H    5.241203   5.913688   4.356766   7.020099   5.639311
    27  H    2.833119   4.392977   3.625528   3.555098   3.631842
    28  H    3.914116   5.936960   5.096060   4.696887   5.139271
    29  H    4.614493   6.217620   4.556135   6.900193   6.238585
    30  H    6.265108   7.394096   5.724614   8.394558   7.285768
    31  O    3.922687   6.067249   4.513231   6.301946   6.150431
    32  H    3.346215   5.622123   4.050895   6.050791   6.062292
    33  H    3.518663   5.661379   4.275228   5.540770   5.480836
    34  H    4.424686   5.123311   5.220116   2.945230   3.589004
    35  H    4.796514   4.817261   4.774941   3.677509   2.847051
    36  H    4.701055   4.261279   4.839818   2.481337   2.365788
    37  O    2.761040   4.906368   3.403605   5.795534   5.950491
    38  H    3.225797   4.768727   3.144730   6.146964   5.903599
    39  H    3.302109   5.526045   4.143898   6.370073   6.755817
    40  O    4.393227   4.974494   3.287208   6.906309   5.931962
    41  H    4.899207   5.626417   3.900873   7.354069   6.273607
    42  H    5.130975   5.357099   3.800964   7.575607   6.475845
                   21         22         23         24         25
    21  H    0.000000
    22  H    4.128399   0.000000
    23  H    4.895366   2.503294   0.000000
    24  H    4.296643   4.310452   2.506184   0.000000
    25  C    4.206697   6.259355   5.421286   3.578189   0.000000
    26  H    2.325820   2.724674   4.614704   5.227664   5.872625
    27  H    2.518182   5.531504   5.748010   4.607557   2.475452
    28  H    3.678285   6.219761   6.719288   5.898340   3.433312
    29  H    2.533710   4.516728   6.262015   6.428780   6.063973
    30  H    3.715085   3.843127   6.093595   6.929818   7.288022
    31  O    2.714842   5.505211   6.957508   6.733277   5.673078
    32  H    2.699700   6.026254   7.365169   6.921246   5.850987
    33  H    2.456599   5.390304   6.545223   6.122452   4.741511
    34  H    4.796362   6.970350   6.306020   4.626941   1.096751
    35  H    4.114796   5.439321   4.548798   3.041458   1.097082
    36  H    4.988571   6.885088   5.683967   3.534046   1.104180
    37  O    3.058000   6.805222   7.914124   7.166423   6.260814
    38  H    2.881143   6.348755   7.524597   6.931294   6.537423
    39  H    4.016578   7.708638   8.861915   8.082437   7.060106
    40  O    2.824484   5.224301   6.566984   6.413698   6.934667
    41  H    2.843629   4.656539   6.305873   6.474765   7.049904
    42  H    3.669539   5.613653   6.937755   6.877394   7.711038
                   26         27         28         29         30
    26  H    0.000000
    27  H    4.165235   0.000000
    28  H    4.739298   1.588926   0.000000
    29  H    1.865869   3.808666   3.983764   0.000000
    30  H    1.726074   5.286364   5.443863   1.803379   0.000000
    31  O    2.969489   3.231205   3.176879   1.273125   3.020421
    32  H    3.415259   3.444974   3.643920   1.837412   3.564532
    33  H    3.155192   2.290296   2.204384   1.903926   3.594709
    34  H    6.401326   2.591583   3.057949   6.335180   7.655949
    35  H    5.403794   2.662606   3.507952   5.831919   6.838778
    36  H    6.726424   3.504832   4.510443   7.038605   8.225949
    37  O    4.288213   4.138282   4.729151   3.124882   4.641747
    38  H    3.897942   4.529345   5.288923   3.060087   4.307152
    39  H    5.142529   4.952510   5.418643   3.861607   5.301304
    40  O    3.084472   5.157227   6.071409   3.075769   3.620612
    41  H    2.383569   5.164787   5.916795   2.462768   2.690622
    42  H    3.752504   6.059118   7.021930   3.934610   4.193087
                   31         32         33         34         35
    31  O    0.000000
    32  H    0.996613   0.000000
    33  H    1.005987   1.607059   0.000000
    34  H    5.770322   5.993289   4.785017   0.000000
    35  H    5.626733   5.956186   4.713766   1.776441   0.000000
    36  H    6.681745   6.784966   5.777395   1.784776   1.791288
    37  O    2.608862   1.630767   3.013921   6.519019   6.554073
    38  H    2.950663   2.101125   3.438814   6.936389   6.737616
    39  H    3.281326   2.291368   3.765759   7.254395   7.421006
    40  O    3.639457   3.169607   4.149733   7.529398   6.906211
    41  H    3.300859   3.069242   3.898098   7.608516   6.892500
    42  H    4.566985   4.081196   5.106999   8.363801   7.674520
                   36         37         38         39         40
    36  H    0.000000
    37  O    7.024085   0.000000
    38  H    7.256442   0.978491   0.000000
    39  H    7.797990   0.960332   1.560245   0.000000
    40  O    7.604527   2.699019   1.769523   3.282616   0.000000
    41  H    7.802206   3.090860   2.302775   3.717789   0.968157
    42  H    8.311992   3.454250   2.478965   3.881478   0.960164
                   41         42
    41  H    0.000000
    42  H    1.549190   0.000000
 Stoichiometry    C10H25N2O5(1+)
 Framework group  C1[X(C10H25N2O5)]
 Deg. of freedom   120
 Full point group                 C1      NOp   1
 Largest Abelian subgroup         C1      NOp   1
 Largest concise Abelian subgroup C1      NOp   1
                         Standard orientation:                         
 ---------------------------------------------------------------------
 Center     Atomic      Atomic             Coordinates (Angstroms)
 Number     Number       Type             X           Y           Z
 ---------------------------------------------------------------------
      1          7           0        2.250591   -0.526226    0.445887
      2          6           0        1.900571    0.163345   -0.817422
      3          6           0        1.407467   -0.963258   -1.762637
      4          6           0        1.705188   -2.276578   -1.011708
      5          6           0        2.724156   -1.857141    0.039861
      6          6           0        0.910198    1.274186   -0.556512
      7          6           0       -0.399121    0.964453   -0.202263
      8          7           0       -1.313193    1.885991    0.105910
      9          6           0       -0.981018    3.183833    0.062822
     10          6           0        0.293108    3.593500   -0.299763
     11          6           0        1.248945    2.624611   -0.608023
     12          8           0       -3.308667    0.541979    0.720965
     13          8           0        0.238037   -0.840652    2.257240
     14          1           0        2.766255   -2.524063    0.909727
     15          1           0        2.088048   -3.061531   -1.671480
     16          1           0        0.796015   -2.654596   -0.527867
     17          1           0        1.954527   -0.908066   -2.709836
     18          1           0        0.343715   -0.865115   -2.004179
     19          1           0        3.739164   -1.792447   -0.394004
     20          1           0        2.816271    0.613856   -1.240256
     21          1           0       -0.735416   -0.070996   -0.164203
     22          1           0       -1.760416    3.898306    0.323340
     23          1           0        0.533865    4.653914   -0.333783
     24          1           0        2.260059    2.923285   -0.887078
     25          6           0        3.216323    0.216645    1.249063
     26          1           0       -2.508615    1.283769    0.491402
     27          1           0        0.961350   -0.753981    1.566623
     28          1           0        0.642730   -1.134934    3.075941
     29          1           0       -2.816660   -0.395616    1.243892
     30          1           0       -4.036384    0.932368    1.213739
     31          8           0       -2.198689   -1.418179    1.683579
     32          1           0       -2.155028   -2.083058    0.942454
     33          1           0       -1.249273   -1.215965    1.947639
     34          1           0        3.452080   -0.350246    2.157862
     35          1           0        2.789597    1.181656    1.549474
     36          1           0        4.155854    0.396575    0.697593
     37          8           0       -1.957207   -2.856524   -0.479523
     38          1           0       -2.344698   -2.251015   -1.143341
     39          1           0       -2.324396   -3.728705   -0.642957
     40          8           0       -2.934788   -0.722716   -1.812152
     41          1           0       -3.402773   -0.205717   -1.140565
     42          1           0       -3.392044   -0.578877   -2.644103
 ---------------------------------------------------------------------
 Rotational constants (GHZ):           0.4255297           0.3610632           0.2638861
 Standard basis: Aug-CC-pVDZ (5D, 7F)
 There are   650 symmetry adapted cartesian basis functions of A   symmetry.
 There are   616 symmetry adapted basis functions of A   symmetry.
   616 basis functions,  1006 primitive gaussians,   650 cartesian basis functions
    69 alpha electrons       69 beta electrons
       nuclear repulsion energy      1436.9466078688 Hartrees.
 NAtoms=   42 NActive=   42 NUniq=   42 SFac= 1.00D+00 NAtFMM=   60 NAOKFM=F Big=F
 Integral buffers will be    131072 words long.
 Raffenetti 2 integral format.
 Two-electron integral symmetry is turned on.
 Nuclear repulsion after empirical dispersion term =     1436.9105617332 Hartrees.
 One-electron integrals computed using PRISM.
 NBasis=   616 RedAO= T EigKep=  1.75D-06  NBF=   616
 NBsUse=   615 1.00D-06 EigRej=  9.35D-07 NBFU=   615
 ExpMin= 2.97D-02 ExpMax= 1.17D+04 ExpMxC= 4.01D+02 IAcc=3 IRadAn=         5 AccDes= 0.00D+00
 Harris functional with IExCor= 4639 and IRadAn=       5 diagonalized for initial guess.
 HarFok:  IExCor= 4639 AccDes= 0.00D+00 IRadAn=         5 IDoV= 1 UseB2=F ITyADJ=14
 ICtDFT=  3500011 ScaDFX=  1.000000  1.000000  1.000000  1.000000
 FoFCou: FMM=F IPFlag=           0 FMFlag=      100000 FMFlg1=           0
         NFxFlg=           0 DoJE=T BraDBF=F KetDBF=T FulRan=T
         wScrn=  0.000000 ICntrl=       500 IOpCl=  0 I1Cent=   200000004 NGrid=           0
         NMat0=    1 NMatS0=      1 NMatT0=    0 NMatD0=    1 NMtDS0=    0 NMtDT0=    0
 Petite list used in FoFCou.
 Requested convergence on RMS density matrix=1.00D-08 within 128 cycles.
 Requested convergence on MAX density matrix=1.00D-06.
 Requested convergence on             energy=1.00D-06.
 No special actions if energy rises.
 SCF Done:  E(RwB97XD) =  -881.456233794     A.U. after   14 cycles
            NFock= 14  Conv=0.72D-08     -V/T= 2.0062
 DoSCS=F DFT=T ScalE2(SS,OS)=  1.000000  1.000000
 Range of M.O.s used for correlation:     1   615
 NBasis=   616 NAE=    69 NBE=    69 NFC=     0 NFV=     0
 NROrb=    615 NOA=    69 NOB=    69 NVA=   546 NVB=   546

 **** Warning!!: The largest alpha MO coefficient is  0.10111819D+03

 Symmetrizing basis deriv contribution to polar:
 IMax=3 JMax=2 DiffMx= 0.00D+00
 G2DrvN: will do    43 centers at a time, making    1 passes.
 Calling FoFCou, ICntrl=  3107 FMM=F I1Cent=   0 AccDes= 0.00D+00.
 End of G2Drv F.D. properties file   721 does not exist.
 End of G2Drv F.D. properties file   722 does not exist.
 End of G2Drv F.D. properties file   788 does not exist.
          IDoAtm=111111111111111111111111111111111111111111
          Differentiating once with respect to electric field.
                with respect to dipole field.
          Differentiating once with respect to nuclear coordinates.
 CalDSu exits because no D1Ps are significant.
          There are   129 degrees of freedom in the 1st order CPHF.  IDoFFX=6 NUNeed=     3.
    126 vectors produced by pass  0 Test12= 3.77D-14 1.00D-09 XBig12= 8.02D+01 4.05D+00.
 AX will form   126 AO Fock derivatives at one time.
    126 vectors produced by pass  1 Test12= 3.77D-14 1.00D-09 XBig12= 1.13D+01 8.63D-01.
    126 vectors produced by pass  2 Test12= 3.77D-14 1.00D-09 XBig12= 2.93D-01 7.82D-02.
    126 vectors produced by pass  3 Test12= 3.77D-14 1.00D-09 XBig12= 2.60D-03 3.87D-03.
    126 vectors produced by pass  4 Test12= 3.77D-14 1.00D-09 XBig12= 2.21D-05 3.59D-04.
    126 vectors produced by pass  5 Test12= 3.77D-14 1.00D-09 XBig12= 1.47D-07 2.22D-05.
    122 vectors produced by pass  6 Test12= 3.77D-14 1.00D-09 XBig12= 8.30D-10 1.69D-06.
     41 vectors produced by pass  7 Test12= 3.77D-14 1.00D-09 XBig12= 4.02D-12 1.29D-07.
      3 vectors produced by pass  8 Test12= 3.77D-14 1.00D-09 XBig12= 2.27D-14 1.00D-08.
      3 vectors produced by pass  9 Test12= 3.77D-14 1.00D-09 XBig12= 1.98D-15 3.16D-09.
 InvSVY:  IOpt=1 It=  1 EMax= 1.07D-14
 Solved reduced A of dimension   925 with   129 vectors.
 Isotropic polarizability for W=    0.000000      171.71 Bohr**3.
 End of Minotr F.D. properties file   721 does not exist.
 End of Minotr F.D. properties file   722 does not exist.
 End of Minotr F.D. properties file   788 does not exist.

 **********************************************************************

            Population analysis using the SCF density.

 **********************************************************************

 Orbital symmetries:
       Occupied  (A) (A) (A) (A) (A) (A) (A) (A) (A) (A) (A) (A)
                 (A) (A) (A) (A) (A) (A) (A) (A) (A) (A) (A) (A)
                 (A) (A) (A) (A) (A) (A) (A) (A) (A) (A) (A) (A)
                 (A) (A) (A) (A) (A) (A) (A) (A) (A) (A) (A) (A)
                 (A) (A) (A) (A) (A) (A) (A) (A) (A) (A) (A) (A)
                 (A) (A) (A) (A) (A) (A) (A) (A) (A)
       Virtual   (A) (A) (A) (A) (A) (A) (A) (A) (A) (A) (A) (A)
                 (A) (A) (A) (A) (A) (A) (A) (A) (A) (A) (A) (A)
                 (A) (A) (A) (A) (A) (A) (A) (A) (A) (A) (A) (A)
                 (A) (A) (A) (A) (A) (A) (A) (A) (A) (A) (A) (A)
                 (A) (A) (A) (A) (A) (A) (A) (A) (A) (A) (A) (A)
                 (A) (A) (A) (A) (A) (A) (A) (A) (A) (A) (A) (A)
                 (A) (A) (A) (A) (A) (A) (A) (A) (A) (A) (A) (A)
                 (A) (A) (A) (A) (A) (A) (A) (A) (A) (A) (A) (A)
                 (A) (A) (A) (A) (A) (A) (A) (A) (A) (A) (A) (A)
                 (A) (A) (A) (A) (A) (A) (A) (A) (A) (A) (A) (A)
                 (A) (A) (A) (A) (A) (A) (A) (A) (A) (A) (A) (A)
                 (A) (A) (A) (A) (A) (A) (A) (A) (A) (A) (A) (A)
                 (A) (A) (A) (A) (A) (A) (A) (A) (A) (A) (A) (A)
                 (A) (A) (A) (A) (A) (A) (A) (A) (A) (A) (A) (A)
                 (A) (A) (A) (A) (A) (A) (A) (A) (A) (A) (A) (A)
                 (A) (A) (A) (A) (A) (A) (A) (A) (A) (A) (A) (A)
                 (A) (A) (A) (A) (A) (A) (A) (A) (A) (A) (A) (A)
                 (A) (A) (A) (A) (A) (A) (A) (A) (A) (A) (A) (A)
                 (A) (A) (A) (A) (A) (A) (A) (A) (A) (A) (A) (A)
                 (A) (A) (A) (A) (A) (A) (A) (A) (A) (A) (A) (A)
                 (A) (A) (A) (A) (A) (A) (A) (A) (A) (A) (A) (A)
                 (A) (A) (A) (A) (A) (A) (A) (A) (A) (A) (A) (A)
                 (A) (A) (A) (A) (A) (A) (A) (A) (A) (A) (A) (A)
                 (A) (A) (A) (A) (A) (A) (A) (A) (A) (A) (A) (A)
                 (A) (A) (A) (A) (A) (A) (A) (A) (A) (A) (A) (A)
                 (A) (A) (A) (A) (A) (A) (A) (A) (A) (A) (A) (A)
                 (A) (A) (A) (A) (A) (A) (A) (A) (A) (A) (A) (A)
                 (A) (A) (A) (A) (A) (A) (A) (A) (A) (A) (A) (A)
                 (A) (A) (A) (A) (A) (A) (A) (A) (A) (A) (A) (A)
                 (A) (A) (A) (A) (A) (A) (A) (A) (A) (A) (A) (A)
                 (A) (A) (A) (A) (A) (A) (A) (A) (A) (A) (A) (A)
                 (A) (A) (A) (A) (A) (A) (A) (A) (A) (A) (A) (A)
                 (A) (A) (A) (A) (A) (A) (A) (A) (A) (A) (A) (A)
                 (A) (A) (A) (A) (A) (A) (A) (A) (A) (A) (A) (A)
                 (A) (A) (A) (A) (A) (A) (A) (A) (A) (A) (A) (A)
                 (A) (A) (A) (A) (A) (A) (A) (A) (A) (A) (A) (A)
                 (A) (A) (A) (A) (A) (A) (A) (A) (A) (A) (A) (A)
                 (A) (A) (A) (A) (A) (A) (A) (A) (A) (A) (A) (A)
                 (A) (A) (A) (A) (A) (A) (A) (A) (A) (A) (A) (A)
                 (A) (A) (A) (A) (A) (A) (A) (A) (A) (A) (A) (A)
                 (A) (A) (A) (A) (A) (A) (A) (A) (A) (A) (A) (A)
                 (A) (A) (A) (A) (A) (A) (A) (A) (A) (A) (A) (A)
                 (A) (A) (A) (A) (A) (A) (A) (A) (A) (A) (A) (A)
                 (A) (A) (A) (A) (A) (A) (A) (A) (A) (A) (A) (A)
                 (A) (A) (A) (A) (A) (A) (A) (A) (A) (A) (A) (A)
                 (A) (A) (A) (A) (A) (A)
 The electronic state is 1-A.
 Alpha  occ. eigenvalues --  -19.43942 -19.40810 -19.39952 -19.39504 -19.38399
 Alpha  occ. eigenvalues --  -14.61475 -14.57596 -10.47643 -10.47473 -10.45314
 Alpha  occ. eigenvalues --  -10.45169 -10.44641 -10.44201 -10.42813 -10.42778
 Alpha  occ. eigenvalues --  -10.40564 -10.39718  -1.28969  -1.25399  -1.24876
 Alpha  occ. eigenvalues --   -1.23285  -1.22060  -1.20432  -1.16588  -1.05283
 Alpha  occ. eigenvalues --   -1.01721  -0.99723  -0.94253  -0.88906  -0.87021
 Alpha  occ. eigenvalues --   -0.86218  -0.80813  -0.79325  -0.78919  -0.77727
 Alpha  occ. eigenvalues --   -0.76523  -0.75709  -0.74783  -0.74581  -0.73206
 Alpha  occ. eigenvalues --   -0.72030  -0.70049  -0.68750  -0.66966  -0.65881
 Alpha  occ. eigenvalues --   -0.65482  -0.63747  -0.63481  -0.62689  -0.62256
 Alpha  occ. eigenvalues --   -0.62006  -0.60578  -0.60204  -0.59028  -0.58287
 Alpha  occ. eigenvalues --   -0.57314  -0.56280  -0.55376  -0.54438  -0.54395
 Alpha  occ. eigenvalues --   -0.54045  -0.53217  -0.52975  -0.52254  -0.51885
 Alpha  occ. eigenvalues --   -0.50889  -0.50482  -0.46844  -0.44026
 Alpha virt. eigenvalues --   -0.10533  -0.08642  -0.06995  -0.05066  -0.04982
 Alpha virt. eigenvalues --   -0.04596  -0.03516  -0.03339  -0.02895  -0.02319
 Alpha virt. eigenvalues --   -0.01850  -0.01313  -0.00870  -0.00580  -0.00391
 Alpha virt. eigenvalues --   -0.00170   0.00476   0.00621   0.00899   0.01432
 Alpha virt. eigenvalues --    0.01586   0.02014   0.02462   0.02613   0.03071
 Alpha virt. eigenvalues --    0.03614   0.03874   0.03908   0.04210   0.04534
 Alpha virt. eigenvalues --    0.04763   0.05218   0.05454   0.05647   0.06150
 Alpha virt. eigenvalues --    0.06464   0.06556   0.06738   0.06827   0.07301
 Alpha virt. eigenvalues --    0.07416   0.07766   0.08084   0.08232   0.08602
 Alpha virt. eigenvalues --    0.08975   0.09076   0.09237   0.09926   0.10155
 Alpha virt. eigenvalues --    0.10351   0.10388   0.10856   0.11458   0.11602
 Alpha virt. eigenvalues --    0.12183   0.12322   0.12551   0.12684   0.12906
 Alpha virt. eigenvalues --    0.13175   0.13365   0.13429   0.14162   0.14285
 Alpha virt. eigenvalues --    0.15044   0.15169   0.15512   0.15730   0.15929
 Alpha virt. eigenvalues --    0.16282   0.16826   0.16938   0.17406   0.17452
 Alpha virt. eigenvalues --    0.17651   0.18132   0.18256   0.18535   0.18785
 Alpha virt. eigenvalues --    0.19000   0.19317   0.19737   0.20040   0.20287
 Alpha virt. eigenvalues --    0.20313   0.20612   0.20775   0.20968   0.21224
 Alpha virt. eigenvalues --    0.21550   0.21944   0.22047   0.22389   0.22773
 Alpha virt. eigenvalues --    0.22924   0.23509   0.23685   0.24012   0.24796
 Alpha virt. eigenvalues --    0.24955   0.25137   0.25358   0.26179   0.26570
 Alpha virt. eigenvalues --    0.26655   0.27251   0.27509   0.27710   0.27894
 Alpha virt. eigenvalues --    0.27942   0.28746   0.28975   0.29377   0.29432
 Alpha virt. eigenvalues --    0.29845   0.30161   0.30459   0.30926   0.31440
 Alpha virt. eigenvalues --    0.31909   0.32238   0.32858   0.33146   0.33333
 Alpha virt. eigenvalues --    0.33947   0.34125   0.34658   0.34775   0.35279
 Alpha virt. eigenvalues --    0.35891   0.36065   0.36463   0.36954   0.37517
 Alpha virt. eigenvalues --    0.37748   0.37943   0.38611   0.39016   0.39165
 Alpha virt. eigenvalues --    0.39605   0.39902   0.40561   0.40898   0.40991
 Alpha virt. eigenvalues --    0.41263   0.42095   0.42685   0.42878   0.43226
 Alpha virt. eigenvalues --    0.43376   0.43669   0.43881   0.44773   0.44840
 Alpha virt. eigenvalues --    0.45058   0.45764   0.45876   0.46365   0.47115
 Alpha virt. eigenvalues --    0.47367   0.47517   0.47785   0.48183   0.48641
 Alpha virt. eigenvalues --    0.49111   0.49509   0.49662   0.49962   0.50536
 Alpha virt. eigenvalues --    0.50911   0.51343   0.51660   0.52158   0.52319
 Alpha virt. eigenvalues --    0.52647   0.53027   0.53490   0.53630   0.53758
 Alpha virt. eigenvalues --    0.54031   0.54435   0.54738   0.55500   0.55902
 Alpha virt. eigenvalues --    0.56077   0.57109   0.57463   0.57553   0.58062
 Alpha virt. eigenvalues --    0.58391   0.58700   0.59179   0.59344   0.59692
 Alpha virt. eigenvalues --    0.60270   0.60420   0.60775   0.61063   0.61531
 Alpha virt. eigenvalues --    0.62054   0.62354   0.63007   0.63135   0.63593
 Alpha virt. eigenvalues --    0.63780   0.64347   0.64636   0.64912   0.65262
 Alpha virt. eigenvalues --    0.65804   0.66404   0.66734   0.67666   0.67930
 Alpha virt. eigenvalues --    0.68256   0.68672   0.69033   0.69351   0.70032
 Alpha virt. eigenvalues --    0.70668   0.70972   0.71002   0.71535   0.72031
 Alpha virt. eigenvalues --    0.72576   0.72922   0.73314   0.73787   0.74578
 Alpha virt. eigenvalues --    0.75169   0.75324   0.75581   0.76022   0.76674
 Alpha virt. eigenvalues --    0.76892   0.77504   0.77953   0.78361   0.79341
 Alpha virt. eigenvalues --    0.79653   0.80447   0.80473   0.81512   0.82163
 Alpha virt. eigenvalues --    0.82664   0.83525   0.83680   0.84289   0.84690
 Alpha virt. eigenvalues --    0.84918   0.85583   0.85776   0.86420   0.87113
 Alpha virt. eigenvalues --    0.87634   0.88142   0.88992   0.89308   0.89661
 Alpha virt. eigenvalues --    0.90737   0.90867   0.91669   0.92042   0.92998
 Alpha virt. eigenvalues --    0.93350   0.93473   0.94050   0.95932   0.96550
 Alpha virt. eigenvalues --    0.97079   0.97612   0.98749   0.99195   0.99830
 Alpha virt. eigenvalues --    1.00117   1.00827   1.01958   1.02161   1.03043
 Alpha virt. eigenvalues --    1.03624   1.04562   1.05356   1.05738   1.06664
 Alpha virt. eigenvalues --    1.06952   1.08242   1.09024   1.09462   1.10760
 Alpha virt. eigenvalues --    1.11127   1.11784   1.12082   1.13011   1.13721
 Alpha virt. eigenvalues --    1.13927   1.14467   1.15496   1.16424   1.17631
 Alpha virt. eigenvalues --    1.18379   1.18723   1.19989   1.20471   1.21159
 Alpha virt. eigenvalues --    1.21393   1.21938   1.22482   1.23394   1.24180
 Alpha virt. eigenvalues --    1.24852   1.25522   1.25819   1.26903   1.28347
 Alpha virt. eigenvalues --    1.29054   1.29204   1.30486   1.31960   1.32788
 Alpha virt. eigenvalues --    1.33227   1.33645   1.34617   1.35914   1.36364
 Alpha virt. eigenvalues --    1.36663   1.37466   1.38843   1.39886   1.40144
 Alpha virt. eigenvalues --    1.40471   1.41580   1.41909   1.42380   1.44867
 Alpha virt. eigenvalues --    1.45604   1.45787   1.46710   1.47578   1.48262
 Alpha virt. eigenvalues --    1.49653   1.50216   1.51116   1.52545   1.53494
 Alpha virt. eigenvalues --    1.54348   1.55273   1.56486   1.57207   1.57486
 Alpha virt. eigenvalues --    1.58181   1.58746   1.60279   1.60877   1.61767
 Alpha virt. eigenvalues --    1.62354   1.62873   1.64135   1.64656   1.64890
 Alpha virt. eigenvalues --    1.65210   1.65782   1.66955   1.68629   1.69052
 Alpha virt. eigenvalues --    1.70015   1.70170   1.70723   1.71815   1.72695
 Alpha virt. eigenvalues --    1.73307   1.73975   1.74963   1.75541   1.76167
 Alpha virt. eigenvalues --    1.77394   1.77708   1.78996   1.79447   1.80472
 Alpha virt. eigenvalues --    1.81206   1.81395   1.82448   1.82923   1.83685
 Alpha virt. eigenvalues --    1.84944   1.85215   1.86175   1.87259   1.87495
 Alpha virt. eigenvalues --    1.88197   1.88622   1.89313   1.89719   1.90416
 Alpha virt. eigenvalues --    1.90846   1.92025   1.92619   1.92785   1.94589
 Alpha virt. eigenvalues --    1.94735   1.95276   1.96142   1.97643   1.98238
 Alpha virt. eigenvalues --    1.99160   1.99820   1.99924   2.00995   2.01357
 Alpha virt. eigenvalues --    2.01702   2.02527   2.03725   2.04803   2.06095
 Alpha virt. eigenvalues --    2.06272   2.07081   2.08011   2.08191   2.09236
 Alpha virt. eigenvalues --    2.10705   2.11760   2.12839   2.13713   2.14335
 Alpha virt. eigenvalues --    2.15197   2.16678   2.17045   2.18717   2.19246
 Alpha virt. eigenvalues --    2.20407   2.20875   2.21108   2.22235   2.22595
 Alpha virt. eigenvalues --    2.24037   2.24571   2.25773   2.26612   2.27749
 Alpha virt. eigenvalues --    2.28718   2.28873   2.29897   2.30472   2.31458
 Alpha virt. eigenvalues --    2.32545   2.32928   2.34466   2.34813   2.35932
 Alpha virt. eigenvalues --    2.37749   2.38321   2.39246   2.39668   2.42190
 Alpha virt. eigenvalues --    2.43208   2.44001   2.44292   2.46264   2.47143
 Alpha virt. eigenvalues --    2.47835   2.48531   2.49143   2.50197   2.51281
 Alpha virt. eigenvalues --    2.53465   2.54883   2.55512   2.56289   2.57479
 Alpha virt. eigenvalues --    2.59177   2.60255   2.61309   2.61535   2.62691
 Alpha virt. eigenvalues --    2.63055   2.63783   2.65515   2.66268   2.67120
 Alpha virt. eigenvalues --    2.68599   2.70413   2.71135   2.72763   2.73860
 Alpha virt. eigenvalues --    2.75141   2.76849   2.77548   2.78988   2.80157
 Alpha virt. eigenvalues --    2.80925   2.82587   2.83672   2.85329   2.86710
 Alpha virt. eigenvalues --    2.87292   2.88063   2.89789   2.90578   2.92065
 Alpha virt. eigenvalues --    2.93165   2.94118   2.94754   2.97491   3.00030
 Alpha virt. eigenvalues --    3.02032   3.03763   3.05057   3.09407   3.16239
 Alpha virt. eigenvalues --    3.16992   3.19829   3.23250   3.29952   3.33714
 Alpha virt. eigenvalues --    3.35640   3.36814   3.38771   3.39477   3.40600
 Alpha virt. eigenvalues --    3.41920   3.43705   3.44448   3.45822   3.47491
 Alpha virt. eigenvalues --    3.50019   3.52031   3.53936   3.55426   3.56957
 Alpha virt. eigenvalues --    3.61838   3.65037   3.70562   3.76269   3.80663
 Alpha virt. eigenvalues --    3.88362   3.89934   3.93171   3.96592   3.99707
 Alpha virt. eigenvalues --    4.03104   4.12099   4.14196   4.19303   4.39650
 Alpha virt. eigenvalues --    4.84412
          Condensed to atoms (all electrons):
               1          2          3          4          5          6
     1  N   15.512417  -5.717188  -0.132020  -1.196320  -0.023906   2.086533
     2  C   -5.717188  23.992236  -4.020042   0.951340  -0.938859  -8.619184
     3  C   -0.132020  -4.020042  10.580501  -1.907001   0.914212   0.808474
     4  C   -1.196320   0.951340  -1.907001   7.932732  -0.665223   0.312954
     5  C   -0.023906  -0.938859   0.914212  -0.665223   6.424620  -0.379220
     6  C    2.086533  -8.619184   0.808474   0.312954  -0.379220  25.116133
     7  C   -0.444409   0.626692  -0.600569   0.037776  -0.062514  -3.527506
     8  N   -0.103486   0.225927   0.062522  -0.040663   0.045301  -1.178743
     9  C    0.001686   0.265259  -0.051564  -0.011843  -0.009546  -1.556371
    10  C    0.122444  -1.217779  -0.255346   0.024701  -0.079975  -0.069756
    11  C   -0.634962   1.717021   0.055917  -0.060453   0.130585  -8.108213
    12  O   -0.005295   0.044394  -0.005776   0.000282   0.003751  -0.115320
    13  O   -0.107046   0.037442   0.031558   0.024013  -0.003786   0.016929
    14  H   -0.856912   0.682180   0.022088   0.251571  -0.437618  -0.236676
    15  H   -0.069129   0.117311   0.431384  -0.671555   0.227659  -0.126181
    16  H    0.258220  -0.273195   0.185991  -0.384023  -0.126811   0.199001
    17  H    0.376262   0.392645  -1.332135   0.317006  -0.280476   0.339178
    18  H   -0.047040   0.277766  -0.180588   0.170589   0.152182  -0.556029
    19  H   -0.248349   0.013734   0.029954  -0.106117  -0.054555   0.066715
    20  H   -0.035066  -2.094266   0.580068   0.152817  -0.081544   0.605389
    21  H   -0.326910  -0.876096  -0.374064  -0.066101   0.133479  -1.972867
    22  H    0.008576  -0.005335   0.003013  -0.000532   0.000371  -0.065634
    23  H   -0.004796   0.066863   0.005971   0.002416  -0.002840   0.194345
    24  H   -0.015219  -0.326651  -0.088867  -0.014371   0.004212   0.999877
    25  C    1.073678  -1.002743  -0.138494  -0.058437  -0.151867   0.466204
    26  H   -0.025048   0.097862  -0.040732   0.015997  -0.015399  -0.006688
    27  H   -0.139548   0.469991   0.178843  -0.013017  -0.230849  -0.185344
    28  H   -0.039289  -0.020864  -0.011686   0.001926   0.040384   0.001228
    29  H   -0.009237   0.022975  -0.007578   0.010350  -0.006362   0.006487
    30  H    0.003509  -0.011745   0.002462  -0.001711   0.000805   0.004792
    31  O   -0.008914   0.016782   0.017924  -0.000937   0.018878  -0.025632
    32  H    0.004780  -0.008721   0.003200  -0.003372   0.002146   0.008045
    33  H    0.009431  -0.026113   0.027026  -0.011729   0.006461   0.001736
    34  H   -0.396394   0.067972  -0.062865   0.054306  -0.026042   0.091318
    35  H    0.289349   0.044048   0.141640  -0.052536  -0.001940  -0.055979
    36  H   -0.733374   0.188678  -0.106820   0.074218   0.073396  -0.034681
    37  O    0.013836  -0.029410   0.052517  -0.084134   0.026559   0.035877
    38  H    0.000452  -0.001148  -0.001291   0.009630  -0.007169   0.009910
    39  H   -0.000628   0.001295   0.001372   0.000322  -0.000470  -0.006826
    40  O    0.002400  -0.000049  -0.011902   0.022882  -0.004786   0.034890
    41  H    0.002143  -0.005798   0.008501  -0.003358   0.001201  -0.009751
    42  H    0.000091   0.002698  -0.004233   0.000061  -0.000166   0.006116
               7          8          9         10         11         12
     1  N   -0.444409  -0.103486   0.001686   0.122444  -0.634962  -0.005295
     2  C    0.626692   0.225927   0.265259  -1.217779   1.717021   0.044394
     3  C   -0.600569   0.062522  -0.051564  -0.255346   0.055917  -0.005776
     4  C    0.037776  -0.040663  -0.011843   0.024701  -0.060453   0.000282
     5  C   -0.062514   0.045301  -0.009546  -0.079975   0.130585   0.003751
     6  C   -3.527506  -1.178743  -1.556371  -0.069756  -8.108213  -0.115320
     7  C   19.143260  -1.113482  -3.075687   2.492810  -6.805105  -0.474248
     8  N   -1.113482   8.785085   0.367098  -0.482754   0.668859  -0.041003
     9  C   -3.075687   0.367098  12.192336  -3.607425   1.821623   0.205911
    10  C    2.492810  -0.482754  -3.607425  13.389774  -4.789482  -0.040788
    11  C   -6.805105   0.668859   1.821623  -4.789482  23.253688   0.059982
    12  O   -0.474248  -0.041003   0.205911  -0.040788   0.059982   9.034557
    13  O   -0.127975   0.020882   0.018469  -0.021179   0.027354  -0.000662
    14  H    0.016515   0.002023  -0.002286  -0.005069   0.019406   0.000692
    15  H    0.040235   0.000203  -0.001109   0.002977   0.008521   0.000405
    16  H   -0.060897  -0.009394   0.000366   0.001468  -0.003193  -0.005885
    17  H    0.114593  -0.008668   0.005200  -0.006043  -0.064408  -0.000998
    18  H   -0.100194  -0.002867  -0.009265  -0.056545   0.105824   0.008734
    19  H   -0.034378   0.000471   0.003098  -0.007393   0.030588   0.000038
    20  H   -0.188111   0.003747  -0.003336   0.062600  -0.129305   0.001967
    21  H   -1.575623   0.354700  -0.305115   0.315043  -0.422562   0.196463
    22  H    0.172589  -0.257180  -0.691539   0.288714   0.159299   0.013144
    23  H   -0.294561   0.024349   0.443586  -1.403555   0.656145  -0.000752
    24  H    0.562363  -0.075580  -0.291972   0.935752  -2.549106  -0.000292
    25  C   -0.018886  -0.013650  -0.051027   0.099939  -0.140616  -0.001384
    26  H    0.114691   0.248148  -0.053141  -0.066170  -0.116211  -0.145384
    27  H   -0.036564   0.023040   0.057749  -0.053515   0.027218   0.001496
    28  H    0.037430  -0.001715  -0.006366   0.007352  -0.007380  -0.002331
    29  H    0.119365  -0.013262  -0.022582  -0.000196  -0.004263   0.026237
    30  H    0.021191  -0.000562  -0.037146   0.021368  -0.006507   0.218880
    31  O    0.008099  -0.005540   0.037604  -0.011970  -0.000936   0.005559
    32  H   -0.022103  -0.014386  -0.002717  -0.001600   0.000738   0.008478
    33  H    0.023254   0.017711   0.008290  -0.002073   0.002582  -0.004241
    34  H   -0.007566  -0.004324  -0.007167   0.022466  -0.055243   0.000212
    35  H   -0.040374   0.008438   0.012129  -0.053474   0.102845   0.000417
    36  H    0.022388   0.002463  -0.002522  -0.005619   0.062809  -0.000295
    37  O   -0.057949   0.000254  -0.003729   0.000260   0.003635  -0.003792
    38  H   -0.054726   0.010968   0.003362  -0.003119   0.005172  -0.002460
    39  H    0.026714  -0.000806  -0.000053   0.000531  -0.000918  -0.000059
    40  O   -0.126481   0.032705  -0.025047   0.017717  -0.017182  -0.023196
    41  H   -0.002574  -0.004500  -0.005610   0.005794   0.000422   0.024054
    42  H    0.025605  -0.004220  -0.002025   0.000099  -0.000316  -0.006917
              13         14         15         16         17         18
     1  N   -0.107046  -0.856912  -0.069129   0.258220   0.376262  -0.047040
     2  C    0.037442   0.682180   0.117311  -0.273195   0.392645   0.277766
     3  C    0.031558   0.022088   0.431384   0.185991  -1.332135  -0.180588
     4  C    0.024013   0.251571  -0.671555  -0.384023   0.317006   0.170589
     5  C   -0.003786  -0.437618   0.227659  -0.126811  -0.280476   0.152182
     6  C    0.016929  -0.236676  -0.126181   0.199001   0.339178  -0.556029
     7  C   -0.127975   0.016515   0.040235  -0.060897   0.114593  -0.100194
     8  N    0.020882   0.002023   0.000203  -0.009394  -0.008668  -0.002867
     9  C    0.018469  -0.002286  -0.001109   0.000366   0.005200  -0.009265
    10  C   -0.021179  -0.005069   0.002977   0.001468  -0.006043  -0.056545
    11  C    0.027354   0.019406   0.008521  -0.003193  -0.064408   0.105824
    12  O   -0.000662   0.000692   0.000405  -0.005885  -0.000998   0.008734
    13  O    8.168802   0.006908  -0.003012   0.008646  -0.000052   0.005327
    14  H    0.006908   2.779911   0.070568  -0.294918  -0.026098   0.027037
    15  H   -0.003012   0.070568   2.213674  -0.583260  -0.315309   0.151901
    16  H    0.008646  -0.294918  -0.583260   2.365871   0.244005  -0.393164
    17  H   -0.000052  -0.026098  -0.315309   0.244005   2.853904  -0.946918
    18  H    0.005327   0.027037   0.151901  -0.393164  -0.946918   3.090594
    19  H    0.003508  -0.514696  -0.186547   0.215218   0.029992  -0.016257
    20  H    0.001553   0.056714   0.059631  -0.089396  -0.466508   0.299103
    21  H    0.004494  -0.034063   0.005234   0.057213   0.252514  -0.571755
    22  H   -0.001043  -0.000086  -0.000080   0.000517   0.001325  -0.002315
    23  H   -0.000060  -0.000054   0.000135   0.000052  -0.001255   0.001927
    24  H   -0.000609  -0.002587  -0.000980   0.003051   0.008228  -0.024185
    25  C   -0.044433  -0.162943  -0.018317   0.054164   0.054627  -0.038816
    26  H    0.016743  -0.000172   0.001215  -0.001293  -0.006429   0.003931
    27  H    0.097689   0.154432   0.022657  -0.062561  -0.045066   0.070172
    28  H    0.388341  -0.004275  -0.001682   0.005509   0.002027  -0.005305
    29  H    0.001794   0.000684  -0.000497   0.002711  -0.000487   0.002718
    30  H   -0.001800  -0.000031  -0.000100   0.000646   0.000466  -0.002905
    31  O   -0.089066   0.002529   0.000049  -0.016658  -0.002708   0.035623
    32  H   -0.005555  -0.000070   0.003473  -0.007728  -0.002689   0.002894
    33  H    0.014210  -0.004087  -0.001017   0.001957  -0.002660   0.010987
    34  H    0.016726  -0.025713  -0.000838   0.008433  -0.002365  -0.001276
    35  H    0.004719  -0.000445   0.001022  -0.011251  -0.009864   0.022307
    36  H   -0.006759   0.025702  -0.003679   0.011719   0.027398  -0.026930
    37  O    0.001252  -0.002005   0.003995  -0.010590  -0.007907   0.054297
    38  H    0.000189  -0.000667  -0.002369   0.009297   0.000714  -0.008984
    39  H    0.000448   0.000364   0.000575  -0.000096   0.000486  -0.005198
    40  O    0.002513  -0.000517  -0.000045   0.001175  -0.005738   0.045831
    41  H   -0.000676   0.000091  -0.000095  -0.001370  -0.001647   0.005924
    42  H   -0.000100  -0.000032  -0.000188   0.000598   0.001494  -0.003527
              19         20         21         22         23         24
     1  N   -0.248349  -0.035066  -0.326910   0.008576  -0.004796  -0.015219
     2  C    0.013734  -2.094266  -0.876096  -0.005335   0.066863  -0.326651
     3  C    0.029954   0.580068  -0.374064   0.003013   0.005971  -0.088867
     4  C   -0.106117   0.152817  -0.066101  -0.000532   0.002416  -0.014371
     5  C   -0.054555  -0.081544   0.133479   0.000371  -0.002840   0.004212
     6  C    0.066715   0.605389  -1.972867  -0.065634   0.194345   0.999877
     7  C   -0.034378  -0.188111  -1.575623   0.172589  -0.294561   0.562363
     8  N    0.000471   0.003747   0.354700  -0.257180   0.024349  -0.075580
     9  C    0.003098  -0.003336  -0.305115  -0.691539   0.443586  -0.291972
    10  C   -0.007393   0.062600   0.315043   0.288714  -1.403555   0.935752
    11  C    0.030588  -0.129305  -0.422562   0.159299   0.656145  -2.549106
    12  O    0.000038   0.001967   0.196463   0.013144  -0.000752  -0.000292
    13  O    0.003508   0.001553   0.004494  -0.001043  -0.000060  -0.000609
    14  H   -0.514696   0.056714  -0.034063  -0.000086  -0.000054  -0.002587
    15  H   -0.186547   0.059631   0.005234  -0.000080   0.000135  -0.000980
    16  H    0.215218  -0.089396   0.057213   0.000517   0.000052   0.003051
    17  H    0.029992  -0.466508   0.252514   0.001325  -0.001255   0.008228
    18  H   -0.016257   0.299103  -0.571755  -0.002315   0.001927  -0.024185
    19  H    2.242731  -0.068478  -0.017227   0.000131  -0.000346   0.000683
    20  H   -0.068478   3.243104  -0.130926  -0.001953   0.005841  -0.128935
    21  H   -0.017227  -0.130926   8.936650   0.054750  -0.032523   0.037378
    22  H    0.000131  -0.001953   0.054750   2.387305  -0.132035  -0.013512
    23  H   -0.000346   0.005841  -0.032523  -0.132035   2.213789  -0.136665
    24  H    0.000683  -0.128935   0.037378  -0.013512  -0.136665   3.006335
    25  C    0.002336   0.028309   0.046215   0.003901  -0.007952   0.043883
    26  H    0.000139   0.005954  -0.345949  -0.198650   0.016560   0.000850
    27  H   -0.022931   0.038358  -0.358570  -0.010093   0.004465  -0.010822
    28  H    0.003598  -0.002324   0.045381   0.000534  -0.000102   0.000658
    29  H   -0.000116   0.000490  -0.139689  -0.000263   0.000401  -0.000382
    30  H   -0.000005  -0.000585   0.037159   0.010125  -0.000469   0.000044
    31  O    0.000568   0.002383  -0.250697   0.001209  -0.000555   0.000098
    32  H    0.000107   0.001060   0.070269  -0.001072   0.000048  -0.000129
    33  H    0.000562   0.001211  -0.077661   0.001826  -0.000082  -0.000066
    34  H    0.012185   0.032167  -0.013031   0.000317  -0.000964   0.001382
    35  H   -0.004273   0.024686  -0.016926  -0.000587  -0.002301  -0.040214
    36  H    0.074611  -0.033143   0.056783   0.000178   0.000182   0.016892
    37  O    0.002903   0.000551  -0.083166   0.000024  -0.000019  -0.000049
    38  H    0.000399   0.000007   0.007952  -0.000431   0.000101  -0.000144
    39  H   -0.000326  -0.000175   0.017739   0.000051  -0.000003   0.000014
    40  O    0.000128   0.002355  -0.112563  -0.001178   0.000552  -0.000826
    41  H    0.000015   0.000649  -0.011860   0.003988  -0.000196  -0.000190
    42  H    0.000009  -0.000540  -0.010724  -0.000083  -0.000061   0.000199
              25         26         27         28         29         30
     1  N    1.073678  -0.025048  -0.139548  -0.039289  -0.009237   0.003509
     2  C   -1.002743   0.097862   0.469991  -0.020864   0.022975  -0.011745
     3  C   -0.138494  -0.040732   0.178843  -0.011686  -0.007578   0.002462
     4  C   -0.058437   0.015997  -0.013017   0.001926   0.010350  -0.001711
     5  C   -0.151867  -0.015399  -0.230849   0.040384  -0.006362   0.000805
     6  C    0.466204  -0.006688  -0.185344   0.001228   0.006487   0.004792
     7  C   -0.018886   0.114691  -0.036564   0.037430   0.119365   0.021191
     8  N   -0.013650   0.248148   0.023040  -0.001715  -0.013262  -0.000562
     9  C   -0.051027  -0.053141   0.057749  -0.006366  -0.022582  -0.037146
    10  C    0.099939  -0.066170  -0.053515   0.007352  -0.000196   0.021368
    11  C   -0.140616  -0.116211   0.027218  -0.007380  -0.004263  -0.006507
    12  O   -0.001384  -0.145384   0.001496  -0.002331   0.026237   0.218880
    13  O   -0.044433   0.016743   0.097689   0.388341   0.001794  -0.001800
    14  H   -0.162943  -0.000172   0.154432  -0.004275   0.000684  -0.000031
    15  H   -0.018317   0.001215   0.022657  -0.001682  -0.000497  -0.000100
    16  H    0.054164  -0.001293  -0.062561   0.005509   0.002711   0.000646
    17  H    0.054627  -0.006429  -0.045066   0.002027  -0.000487   0.000466
    18  H   -0.038816   0.003931   0.070172  -0.005305   0.002718  -0.002905
    19  H    0.002336   0.000139  -0.022931   0.003598  -0.000116  -0.000005
    20  H    0.028309   0.005954   0.038358  -0.002324   0.000490  -0.000585
    21  H    0.046215  -0.345949  -0.358570   0.045381  -0.139689   0.037159
[...]
     21          1           0       -0.701214   -0.102815   -0.216270
     22          1           0       -1.814011    3.837788    0.299221
     23          1           0        0.479805    4.651111   -0.319851
     24          1           0        2.247644    2.960329   -0.859223
     25          6           0        3.235600    0.176613    1.260712
     26          1           0       -2.398851    1.317722    0.402779
     27          1           0        0.939225   -0.724654    1.580021
     28          1           0        0.627283   -1.082308    3.091509
     29          1           0       -2.749064   -0.510637    1.301863
     30          1           0       -4.041357    0.921864    1.119410
     31          8           0       -2.225663   -1.401601    1.697730
     32          1           0       -2.165144   -2.075143    0.960285
     33          1           0       -1.283900   -1.181417    1.971151
     34          1           0        3.434781   -0.402336    2.170794
     35          1           0        2.841181    1.156190    1.559067
     36          1           0        4.190637    0.323462    0.726495
     37          8           0       -1.950103   -2.832871   -0.452380
     38          1           0       -2.375546   -2.236717   -1.106013
     39          1           0       -2.282097   -3.719453   -0.613160
     40          8           0       -2.976175   -0.726804   -1.757389
     41          1           0       -3.362461   -0.217861   -1.020221
     42          1           0       -3.576044   -0.643742   -2.502109
 ---------------------------------------------------------------------
                    Distance matrix (angstroms):
                    1          2          3          4          5
     1  N    0.000000
     2  C    1.481711   0.000000
     3  C    2.408633   1.552374   0.000000
     4  C    2.339056   2.453731   1.540020   0.000000
     5  C    1.470029   2.352975   2.396020   1.522084   0.000000
     6  C    2.454281   1.511047   2.586615   3.624413   3.655933
     7  C    3.085916   2.508316   3.068147   3.859473   4.159998
     8  N    4.293692   3.754250   4.357024   5.168710   5.449179
     9  C    4.932806   4.271576   5.123180   6.112920   6.232994
    10  C    4.629235   3.827327   4.907568   6.037085   5.981626
    11  C    3.480665   2.557101   3.763449   4.913844   4.778827
    12  O    5.647160   5.453467   5.580921   5.928252   6.462357
    13  O    2.752921   3.677531   4.280732   3.891499   3.491532
    14  H    2.114250   3.314128   3.377715   2.208138   1.096980
    15  H    3.310319   3.358356   2.205226   1.094554   2.188707
    16  H    2.735869   3.006384   2.182815   1.097469   2.161833
    17  H    3.161204   2.174813   1.095354   2.187537   2.957661
    18  H    3.165149   2.214298   1.095435   2.202121   3.307754
    19  H    2.129672   2.738187   2.802728   2.179010   1.105696
    20  H    2.116823   1.103942   2.181657   3.146037   2.832891
    21  H    3.057534   2.731619   2.835214   3.293739   3.823400
    22  H    5.967618   5.356920   6.165079   7.129173   7.271338
    23  H    5.524264   4.721944   5.851992   7.027059   6.894856
    24  H    3.718734   2.786139   4.061434   5.232852   4.935700
    25  C    1.459203   2.449592   3.697714   3.686734   2.453021
    26  H    5.005929   4.652872   5.006593   5.591154   6.007823
    27  H    1.754056   2.760737   3.444599   3.114145   2.593642
    28  H    3.162733   4.321547   4.984590   4.416975   3.763738
    29  H    5.078615   5.200767   5.281045   5.290009   5.736720
    30  H    6.496755   6.336715   6.529701   6.873480   7.357733
    31  O    4.736739   5.127273   5.139748   4.833815   5.198631
    32  H    4.713672   5.021344   4.737491   4.327588   4.934170
    33  H    3.912689   4.485306   4.703629   4.348547   4.462883
    34  H    2.099533   3.394784   4.461153   4.101011   2.701224
    35  H    2.103651   2.720750   4.180670   4.434234   3.395607
    36  H    2.132455   2.730029   3.905266   4.006728   2.756148
    37  O    4.879290   4.945718   4.171962   3.713540   4.751084
    38  H    5.173170   4.964948   4.151395   4.043452   5.193265
    39  H    5.648097   5.762977   4.855734   4.240413   5.331443
    40  O    5.677278   5.093763   4.476101   4.934972   6.041429
    41  H    5.812277   5.328024   4.971614   5.420067   6.351547
    42  H    6.531915   5.832158   5.125302   5.671090   6.860421
                    6          7          8          9         10
     6  C    0.000000
     7  C    1.390074   0.000000
     8  N    2.390953   1.333444   0.000000
     9  C    2.763179   2.319506   1.340029   0.000000
    10  C    2.417129   2.725623   2.370965   1.385428   0.000000
    11  C    1.393545   2.373786   2.747771   2.394588   1.396089
    12  O    4.459511   3.077461   2.454205   3.528801   4.782469
    13  O    3.588343   3.108868   3.765549   4.698824   5.082703
    14  H    4.450408   4.762344   5.977957   6.833508   6.696086
    15  H    4.604791   4.870999   6.169286   7.114461   7.006644
    16  H    3.828468   3.664057   4.874185   5.982609   6.153074
    17  H    3.273166   3.964505   5.193581   5.809298   5.415266
    18  H    2.636668   2.704998   3.862632   4.732006   4.740961
    19  H    4.193961   4.949028   6.245797   6.891973   6.444147
    20  H    2.128505   3.394253   4.516921   4.769543   4.017159
    21  H    2.166573   1.088956   2.056920   3.277499   3.812827
    22  H    3.850171   3.282291   2.071774   1.088380   2.172298
    23  H    3.410484   3.813012   3.350190   2.146368   1.087768
    24  H    2.155753   3.371665   3.838303   3.386137   2.158690
    25  C    3.142339   3.984519   4.984212   5.325808   4.787363
    26  H    3.467275   2.155539   1.258582   2.326663   3.564126
    27  H    2.937192   2.792978   3.733218   4.602795   4.751606
    28  H    4.365259   4.022095   4.633251   5.468420   5.781679
    29  H    4.497964   3.177534   3.025558   4.243812   5.328794
    30  H    5.261613   3.908359   3.072842   3.912719   5.253986
    31  O    4.719620   3.554799   3.747413   4.993649   5.919425
    32  H    4.813027   3.702254   4.110142   5.429353   6.285986
    33  H    4.171268   3.192794   3.575914   4.749851   5.501398
    34  H    4.074310   4.704089   5.653651   6.076390   5.665250
    35  H    2.861732   3.692884   4.462420   4.595791   4.003238
    36  H    3.636037   4.708460   5.741842   5.959717   5.211073
    37  O    5.021799   4.090043   4.748028   6.075988   6.790281
    38  H    4.855851   3.849063   4.376538   5.673748   6.441888
    39  H    5.942033   5.044537   5.687710   7.016411   7.741325
    40  O    4.549544   3.439194   3.564606   4.703458   5.585196
    41  H    4.568440   3.294946   3.106078   4.242088   5.301470
    42  H    5.267380   4.225271   4.232705   5.237878   6.119839
                   11         12         13         14         15
    11  C    0.000000
    12  O    5.153212   0.000000
    13  O    4.592444   4.075922   0.000000
    14  H    5.582926   6.702697   3.301211   0.000000
    15  H    5.846281   6.818435   4.892674   2.714830   0.000000
    16  H    5.207174   5.202171   3.383275   2.449809   1.773463
    17  H    4.202384   6.544804   5.329007   4.000592   2.395699
    18  H    3.826087   4.880462   4.439642   4.169103   2.801112
    19  H    5.133799   7.462490   4.500259   1.783831   2.452500
    20  H    2.626503   6.435153   4.605481   3.846423   3.848512
    21  H    3.379663   2.806817   2.741454   4.306625   4.270193
    22  H    3.400940   3.641681   5.433162   7.821323   8.129235
    23  H    2.169523   5.672188   6.039870   7.620367   7.974225
    24  H    1.090553   6.236903   5.295312   5.796865   6.075568
    25  C    3.675450   6.559045   3.326969   2.805360   4.538815
    26  H    3.997450   1.218797   3.850103   6.388393   6.552656
    27  H    4.018668   4.501032   1.000158   2.598256   4.151089
    28  H    5.276539   4.875559   0.959646   3.328620   5.348817
    29  H    5.425160   1.328776   3.135732   5.796678   6.169657
    30  H    5.811992   0.960402   4.737059   7.552066   7.767132
    31  O    5.796466   2.429745   2.582519   5.084081   5.668689
    32  H    6.019436   2.849870   3.005179   4.852120   5.040717
    33  H    5.249933   2.936735   1.579779   4.311322   5.266531
    34  H    4.663097   6.949848   3.241298   2.607452   4.889576
    35  H    3.070153   6.224210   3.346982   3.764484   5.378476
    36  H    3.978878   7.481196   4.406163   3.255639   4.685903
    37  O    6.334027   3.788672   4.032015   4.817317   4.156265
    38  H    6.089396   3.412138   4.494558   5.433829   4.501773
    39  H    7.267222   4.550854   4.806435   5.304326   4.476558
    40  O    5.515930   2.752940   5.141968   6.495966   5.506443
    41  H    5.431575   1.851769   4.898508   6.740634   6.114537
    42  H    6.129295   3.396691   6.099684   7.358686   6.142125
                   16         17         18         19         20
    16  H    0.000000
    17  H    3.037625   0.000000
    18  H    2.387109   1.760318   0.000000
    19  H    3.072297   2.969269   3.857583   0.000000
    20  H    3.911816   2.279832   2.956929   2.787339   0.000000
    21  H    2.846980   3.854177   2.365443   4.745985   3.780982
    22  H    6.921635   6.853087   5.699178   7.959925   5.849648
    23  H    7.203016   6.253838   5.724150   7.265101   4.727511
    24  H    5.718574   4.268114   4.332528   5.058079   2.400023
    25  C    4.140439   4.245510   4.502504   2.650483   2.536979
    26  H    5.059354   5.923703   4.375667   6.924503   5.543178
    27  H    2.836339   4.448054   3.772111   3.569874   3.658940
    28  H    3.957533   5.988692   5.265511   4.697521   5.148100
    29  H    4.439964   6.328736   4.734102   6.802593   6.260471
    30  H    6.128932   7.487719   5.827074   8.364437   7.292282
    31  O    3.896285   6.217285   4.748944   6.298096   6.214411
    32  H    3.304663   5.773385   4.288077   6.023499   6.124937
    33  H    3.521067   5.798492   4.508011   5.553144   5.541728
    34  H    4.422721   5.063547   5.264447   2.941895   3.582549
    35  H    4.774024   4.776458   4.815288   3.682467   2.803218
    36  H    4.690132   4.173586   4.837302   2.490186   2.363215
    37  O    2.687099   5.055001   3.609656   5.739384   6.001312
    38  H    3.151967   4.973956   3.369511   6.136841   5.993896
    39  H    3.222619   5.649301   4.320609   6.274686   6.789812
    40  O    4.280095   5.204026   3.467515   6.917056   6.033004
    41  H    4.716546   5.791392   4.034219   7.284734   6.294777
    42  H    5.071477   5.723931   4.059598   7.683485   6.702697
                   21         22         23         24         25
    21  H    0.000000
    22  H    4.127033   0.000000
    23  H    4.899526   2.511242   0.000000
    24  H    4.300234   4.313811   2.504979   0.000000
    25  C    4.214031   6.310883   5.487597   3.635830   0.000000
    26  H    2.298504   2.589111   4.463221   5.087310   5.812506
    27  H    2.510853   5.480568   5.720090   4.608793   2.487485
    28  H    3.696717   6.161505   6.673172   5.880202   3.426371
    29  H    2.581615   4.559431   6.300729   6.456391   6.024136
    30  H    3.740396   3.759840   6.034871   6.900860   7.316384
    31  O    2.770232   5.438427   6.930045   6.750921   5.701504
    32  H    2.723500   5.960122   7.340096   6.938249   5.859070
    33  H    2.507531   5.316840   6.509817   6.134890   4.772301
    34  H    4.784792   7.002232   6.361802   4.679510   1.096861
    35  H    4.157581   5.518061   4.617456   3.074952   1.097339
    36  H    5.000072   6.970570   5.796003   3.639064   1.104104
    37  O    3.011425   6.714248   7.869689   7.165736   6.235640
    38  H    2.854570   6.260161   7.497550   6.960178   6.550611
    39  H    3.966961   7.626496   8.819324   8.074565   7.009687
    40  O    2.817776   5.139628   6.552274   6.456775   6.965002
    41  H    2.782411   4.537281   6.241828   6.449814   6.992330
    42  H    3.712454   5.571025   7.017666   7.042993   7.824980
                   26         27         28         29         30
    26  H    0.000000
    27  H    4.086557   0.000000
    28  H    4.706050   1.584242   0.000000
    29  H    2.067340   3.704949   3.863854   0.000000
    30  H    1.835236   5.265869   5.449962   1.937877   0.000000
    31  O    3.016888   3.238615   3.191218   1.106561   3.004944
    32  H    3.446298   3.441657   3.650410   1.704500   3.539427
    33  H    3.154140   2.303020   2.217577   1.744877   3.571109
    34  H    6.333699   2.584705   3.031851   6.245535   7.664956
    35  H    5.368523   2.674967   3.501513   5.839119   6.900547
    36  H    6.671933   3.521184   4.501885   7.013288   8.263062
    37  O    4.261467   4.113812   4.718744   3.018026   4.576232
    38  H    3.861481   4.526457   5.288557   2.986090   4.207620
    39  H    5.139932   4.914853   5.398481   3.765883   5.257245
    40  O    3.029805   5.144771   6.051703   3.075277   3.482627
    41  H    2.304667   5.051989   5.794105   2.419513   2.517517
    42  H    3.697499   6.087527   7.010626   3.895101   3.972787
                   31         32         33         34         35
    31  O    0.000000
    32  H    1.000573   0.000000
    33  H    1.005066   1.611579   0.000000
    34  H    5.767404   5.968482   4.786729   0.000000
    35  H    5.677538   5.988602   4.759255   1.776394   0.000000
    36  H    6.714763   6.797346   5.812433   1.784405   1.790989
    37  O    2.597584   1.617411   3.007429   6.464172   6.550949
    38  H    2.929310   2.083257   3.431368   6.918259   6.769690
    39  H    3.273505   2.278851   3.757218   7.171914   7.398543
    40  O    3.599509   3.140309   4.119766   7.525706   6.956018
    41  H    3.175029   2.967401   3.767912   7.511265   6.857545
    42  H    4.476218   4.003464   5.055005   8.428877   7.804722
                   36         37         38         39         40
    36  H    0.000000
    37  O    7.004347   0.000000
    38  H    7.281988   0.981650   0.000000
    39  H    7.748298   0.960259   1.565293   0.000000
    40  O    7.657410   2.681676   1.750681   3.278255   0.000000
    41  H    7.771315   3.025802   2.248809   3.687009   0.975529
    42  H    8.466446   3.411358   2.434719   3.834375   0.959870
                   41         42
    41  H    0.000000
    42  H    1.556594   0.000000
 Stoichiometry    C10H25N2O5(1+)
 Framework group  C1[X(C10H25N2O5)]
 Deg. of freedom   120
 Full point group                 C1      NOp   1
 Largest Abelian subgroup         C1      NOp   1
 Largest concise Abelian subgroup C1      NOp   1
                         Standard orientation:                         
 ---------------------------------------------------------------------
 Center     Atomic      Atomic             Coordinates (Angstroms)
 Number     Number       Type             X           Y           Z
 ---------------------------------------------------------------------
      1          7           0        2.249332   -0.551973    0.448651
      2          6           0        1.953276    0.178642   -0.805948
      3          6           0        1.497577   -0.913208   -1.810969
      4          6           0        1.652966   -2.244180   -1.052005
      5          6           0        2.660813   -1.901537    0.035920
      6          6           0        0.945802    1.274345   -0.545767
      7          6           0       -0.365599    0.940437   -0.227902
      8          7           0       -1.288505    1.852742    0.078722
      9          6           0       -0.980752    3.156925    0.070220
     10          6           0        0.295266    3.584546   -0.258914
     11          6           0        1.267470    2.630136   -0.563849
     12          8           0       -3.284798    0.551185    0.665141
     13          8           0        0.201152   -0.824636    2.267768
     14          1           0        2.636113   -2.581800    0.896150
     15          1           0        1.994744   -3.058708   -1.698365
     16          1           0        0.698352   -2.545700   -0.602298
     17          1           0        2.146016   -0.884635   -2.693302
     18          1           0        0.472596   -0.753624   -2.162998
     19          1           0        3.690842   -1.891367   -0.365951
     20          1           0        2.880688    0.649775   -1.175582
     21          1           0       -0.699869   -0.095885   -0.216714
     22          1           0       -1.778404    3.849849    0.331329
     23          1           0        0.526132    4.647494   -0.268016
     24          1           0        2.280859    2.945442   -0.814707
     25          6           0        3.231613    0.132178    1.283118
     26          1           0       -2.387346    1.334516    0.407383
     27          1           0        0.925261   -0.750479    1.581852
     28          1           0        0.602087   -1.119782    3.088170
     29          1           0       -2.759357   -0.499075    1.286843
     30          1           0       -4.037210    0.947224    1.111685
     31          8           0       -2.246398   -1.398713    1.676716
     32          1           0       -2.188333   -2.065632    0.933079
     33          1           0       -1.304057   -1.190057    1.957098
     34          1           0        3.420603   -0.457394    2.188542
     35          1           0        2.844828    1.112493    1.588950
     36          1           0        4.190762    0.275191    0.755267
     37          8           0       -1.973013   -2.811653   -0.485760
     38          1           0       -2.389432   -2.205228   -1.135745
     39          1           0       -2.312447   -3.693475   -0.656853
     40          8           0       -2.972485   -0.683500   -1.775492
     41          1           0       -3.357838   -0.178096   -1.035406
     42          1           0       -3.567648   -0.587596   -2.522441
 ---------------------------------------------------------------------
 Rotational constants (GHZ):           0.4301164           0.3594627           0.2647556
 Standard basis: Aug-CC-pVDZ (5D, 7F)
 There are   650 symmetry adapted cartesian basis functions of A   symmetry.
 There are   616 symmetry adapted basis functions of A   symmetry.
   616 basis functions,  1006 primitive gaussians,   650 cartesian basis functions
    69 alpha electrons       69 beta electrons
       nuclear repulsion energy      1439.1018047477 Hartrees.
 NAtoms=   42 NActive=   42 NUniq=   42 SFac= 1.00D+00 NAtFMM=   60 NAOKFM=F Big=F
 Integral buffers will be    131072 words long.
 Raffenetti 2 integral format.
 Two-electron integral symmetry is turned on.
 Nuclear repulsion after empirical dispersion term =     1439.0655339405 Hartrees.
 One-electron integrals computed using PRISM.
 NBasis=   616 RedAO= T EigKep=  1.75D-06  NBF=   616
 NBsUse=   615 1.00D-06 EigRej=  9.20D-07 NBFU=   615
 Initial guess from the checkpoint file:  "/gscratch/scrubbed/gds001/Gau-27647.chk"
 B after Tr=     0.000000    0.000000   -0.000000
         Rot=    1.000000   -0.000000   -0.000000    0.000000 Ang=   0.00 deg.
 Requested convergence on RMS density matrix=1.00D-08 within 128 cycles.
 Requested convergence on MAX density matrix=1.00D-06.
 Requested convergence on             energy=1.00D-06.
 No special actions if energy rises.
 SCF Done:  E(RwB97XD) =  -881.459599618     A.U. after    1 cycles
            NFock=  1  Conv=0.38D-08     -V/T= 2.0061
 DoSCS=F DFT=T ScalE2(SS,OS)=  1.000000  1.000000
 Range of M.O.s used for correlation:     1   615
 NBasis=   616 NAE=    69 NBE=    69 NFC=     0 NFV=     0
 NROrb=    615 NOA=    69 NOB=    69 NVA=   546 NVB=   546

 **** Warning!!: The largest alpha MO coefficient is  0.11057135D+03

 Symmetrizing basis deriv contribution to polar:
 IMax=3 JMax=2 DiffMx= 0.00D+00
 G2DrvN: will do    43 centers at a time, making    1 passes.
 Calling FoFCou, ICntrl=  3107 FMM=F I1Cent=   0 AccDes= 0.00D+00.
