 Entering Gaussian System, Link 0=g16
 Input=NicPyrNs2h3wB97XDaVDZ180K.gjf
 Output=NicPyrNs2h3wB97XDaVDZ180K.log
 Initial command:
 /sw/contrib/gaussian/g16/A03/g16/l1.exe "/gscratch/scrubbed/gds001/Gau-19985.inp" -scrdir="/gscratch/scrubbed/gds001/"
 Entering Link 1 = /sw/contrib/gaussian/g16/A03/g16/l1.exe PID=     19986.
  
 Copyright (c) 1988,1990,1992,1993,1995,1998,2003,2009,2016,
            Gaussian, Inc.  All Rights Reserved.
  
 This is part of the Gaussian(R) 16 program.  It is based on
 the Gaussian(R) 09 system (copyright 2009, Gaussian, Inc.),
 the Gaussian(R) 03 system (copyright 2003, Gaussian, Inc.),
 the Gaussian(R) 98 system (copyright 1998, Gaussian, Inc.),
 the Gaussian(R) 94 system (copyright 1995, Gaussian, Inc.),
 the Gaussian 92(TM) system (copyright 1992, Gaussian, Inc.),
 the Gaussian 90(TM) system (copyright 1990, Gaussian, Inc.),
 the Gaussian 88(TM) system (copyright 1988, Gaussian, Inc.),
 the Gaussian 86(TM) system (copyright 1986, Carnegie Mellon
 University), and the Gaussian 82(TM) system (copyright 1983,
 Carnegie Mellon University). Gaussian is a federally registered
 trademark of Gaussian, Inc.
  
 This software contains proprietary and confidential information,
 including trade secrets, belonging to Gaussian, Inc.
  
 This software is provided under written license and may be
 used, copied, transmitted, or stored only in accord with that
 written license.
  
 The following legend is applicable only to US Government
 contracts under FAR:
  
                    RESTRICTED RIGHTS LEGEND
  
 Use, reproduction and disclosure by the US Government is
 subject to restrictions as set forth in subparagraphs (a)
 and (c) of the Commercial Computer Software - Restricted
 Rights clause in FAR 52.227-19.
  
 Gaussian, Inc.
 340 Quinnipiac St., Bldg. 40, Wallingford CT 06492
  
  
 ---------------------------------------------------------------
 Warning -- This program may not be used in any manner that
 competes with the business of Gaussian, Inc. or will provide
 assistance to any competitor of Gaussian, Inc.  The licensee
 of this program is prohibited from giving any competitor of
 Gaussian, Inc. access to this program.  By using this program,
 the user acknowledges that Gaussian, Inc. is engaged in the
 business of creating and licensing software in the field of
 computational chemistry and represents and warrants to the
 licensee that it is not a competitor of Gaussian, Inc. and that
 it will not use this program in any manner prohibited above.
 ---------------------------------------------------------------
  

 Cite this work as:
 Gaussian 16, Revision A.03,
 M. J. Frisch, G. W. Trucks, H. B. Schlegel, G. E. Scuseria, 
 M. A. Robb, J. R. Cheeseman, G. Scalmani, V. Barone, 
 G. A. Petersson, H. Nakatsuji, X. Li, M. Caricato, A. V. Marenich, 
 J. Bloino, B. G. Janesko, R. Gomperts, B. Mennucci, H. P. Hratchian, 
 J. V. Ortiz, A. F. Izmaylov, J. L. Sonnenberg, D. Williams-Young, 
 F. Ding, F. Lipparini, F. Egidi, J. Goings, B. Peng, A. Petrone, 
 T. Henderson, D. Ranasinghe, V. G. Zakrzewski, J. Gao, N. Rega, 
 G. Zheng, W. Liang, M. Hada, M. Ehara, K. Toyota, R. Fukuda, 
 J. Hasegawa, M. Ishida, T. Nakajima, Y. Honda, O. Kitao, H. Nakai, 
 T. Vreven, K. Throssell, J. A. Montgomery, Jr., J. E. Peralta, 
 F. Ogliaro, M. J. Bearpark, J. J. Heyd, E. N. Brothers, K. N. Kudin, 
 V. N. Staroverov, T. A. Keith, R. Kobayashi, J. Normand, 
 K. Raghavachari, A. P. Rendell, J. C. Burant, S. S. Iyengar, 
 J. Tomasi, M. Cossi, J. M. Millam, M. Klene, C. Adamo, R. Cammi, 
 J. W. Ochterski, R. L. Martin, K. Morokuma, O. Farkas, 
 J. B. Foresman, and D. J. Fox, Gaussian, Inc., Wallingford CT, 2016.
 
 ******************************************
 Gaussian 16:  ES64L-G16RevA.03 25-Dec-2016
                14-Nov-2021 
 ******************************************
 %nprocshared=28
 Will use up to   28 processors via shared memory.
 %mem=41GB
 ---------------------------------------------
 # wB97XD/aug-cc-pVDZ opt freq temperature=180
 ---------------------------------------------
 1/18=20,19=15,26=3,38=1,112=180000/1,3;
 2/9=110,12=2,17=6,18=5,40=1/2;
 3/5=16,7=10,11=2,25=1,30=1,71=1,74=-58/1,2,3;
 4//1;
 5/5=2,38=5/2;
 6/7=2,8=2,9=2,10=2,28=1/1;
 7//1,2,3,16;
 1/18=20,19=15,26=3/3(2);
 2/9=110/2;
 99//99;
 2/9=110/2;
 3/5=16,7=10,11=2,25=1,30=1,71=1,74=-58/1,2,3;
 4/5=5,16=3,69=1/1;
 5/5=2,38=5/2;
 7//1,2,3,16;
 1/18=20,19=15,26=3/3(-5);
 2/9=110/2;
 6/7=2,8=2,9=2,10=2,19=2,28=1/1;
 99/9=1/99;
 --------
 Nicotine
 --------
 Symbolic Z-matrix:
 Charge =  1 Multiplicity = 1
 C                     2.62697  -0.83562  -0.34577 
 C                     1.38822  -0.19014  -0.35729 
 C                     1.37339   1.19495  -0.16399 
 C                     2.5796    1.85424   0.0302 
 C                     3.7603    1.10714   0.02042 
 N                     3.79079  -0.21321  -0.1636 
 C                     0.13417  -0.99228  -0.56258 
 C                    -0.85649  -0.516    -1.62808 
 C                    -2.22864  -1.08955  -1.19903 
 C                    -2.01075  -1.65687   0.21287 
 N                    -0.73385  -1.03371   0.67756 
 O                    -1.76307   1.4716    1.18631 
 H                    -1.85634  -2.74208   0.20717 
 H                    -2.57012  -1.88111  -1.87283 
 H                    -2.99291  -0.30634  -1.18901 
 H                    -0.88081   0.57931  -1.65075 
 H                    -0.53904  -0.85684  -2.61771 
 H                    -2.80126  -1.41392   0.92913 
 H                     0.4044   -2.04175  -0.74748 
 H                     2.6824   -1.91737  -0.49871 
 H                     4.72463   1.5961    0.16766 
 H                     2.61438   2.93173   0.18204 
 H                     0.43536   1.7512   -0.15703 
 C                    -0.11684  -1.69085   1.84872 
 H                    -0.97348  -0.05224   0.93344 
 H                    -1.66475   2.08061   1.92171 
 H                    -2.59221   1.71285   0.72787 
 O                    -4.03507   1.92987  -0.26778 
 H                    -4.91919   1.87189   0.10662 
 H                    -4.07834   2.64349  -0.9114 
 H                    -0.83144  -1.68211   2.67717 
 H                     0.78815  -1.14391   2.12808 
 H                     0.13749  -2.72298   1.58529 
 
 Add virtual bond connecting atoms H25        and O12        Dist= 3.28D+00.
 Add virtual bond connecting atoms O28        and H27        Dist= 3.34D+00.

 GradGradGradGradGradGradGradGradGradGradGradGradGradGradGradGradGradGrad
 Berny optimization.
 Initialization pass.
                           ----------------------------
                           !    Initial Parameters    !
                           ! (Angstroms and Degrees)  !
 --------------------------                            --------------------------
 ! Name  Definition              Value          Derivative Info.                !
 --------------------------------------------------------------------------------
 ! R1    R(1,2)                  1.3969         estimate D2E/DX2                !
 ! R2    R(1,6)                  1.3323         estimate D2E/DX2                !
 ! R3    R(1,20)                 1.0939         estimate D2E/DX2                !
 ! R4    R(2,3)                  1.3986         estimate D2E/DX2                !
 ! R5    R(2,7)                  1.5027         estimate D2E/DX2                !
 ! R6    R(3,4)                  1.3883         estimate D2E/DX2                !
 ! R7    R(3,23)                 1.0906         estimate D2E/DX2                !
 ! R8    R(4,5)                  1.3973         estimate D2E/DX2                !
 ! R9    R(4,22)                 1.0887         estimate D2E/DX2                !
 ! R10   R(5,6)                  1.3335         estimate D2E/DX2                !
 ! R11   R(5,21)                 1.0912         estimate D2E/DX2                !
 ! R12   R(7,8)                  1.5309         estimate D2E/DX2                !
 ! R13   R(7,11)                 1.5143         estimate D2E/DX2                !
 ! R14   R(7,19)                 1.0994         estimate D2E/DX2                !
 ! R15   R(8,9)                  1.5478         estimate D2E/DX2                !
 ! R16   R(8,16)                 1.0958         estimate D2E/DX2                !
 ! R17   R(8,17)                 1.0938         estimate D2E/DX2                !
 ! R18   R(9,10)                 1.5371         estimate D2E/DX2                !
 ! R19   R(9,14)                 1.0942         estimate D2E/DX2                !
 ! R20   R(9,15)                 1.0944         estimate D2E/DX2                !
 ! R21   R(10,11)                1.4949         estimate D2E/DX2                !
 ! R22   R(10,13)                1.0962         estimate D2E/DX2                !
 ! R23   R(10,18)                1.0941         estimate D2E/DX2                !
 ! R24   R(11,24)                1.4779         estimate D2E/DX2                !
 ! R25   R(11,25)                1.0422         estimate D2E/DX2                !
 ! R26   R(12,25)                1.7348         estimate D2E/DX2                !
 ! R27   R(12,26)                0.9599         estimate D2E/DX2                !
 ! R28   R(12,27)                0.9777         estimate D2E/DX2                !
 ! R29   R(24,31)                1.0941         estimate D2E/DX2                !
 ! R30   R(24,32)                1.0937         estimate D2E/DX2                !
 ! R31   R(24,33)                1.0952         estimate D2E/DX2                !
 ! R32   R(27,28)                1.7664         estimate D2E/DX2                !
 ! R33   R(28,29)                0.9619         estimate D2E/DX2                !
 ! R34   R(28,30)                0.962          estimate D2E/DX2                !
 ! A1    A(2,1,6)              124.0496         estimate D2E/DX2                !
 ! A2    A(2,1,20)             120.0477         estimate D2E/DX2                !
 ! A3    A(6,1,20)             115.9016         estimate D2E/DX2                !
 ! A4    A(1,2,3)              117.7674         estimate D2E/DX2                !
 ! A5    A(1,2,7)              119.638          estimate D2E/DX2                !
 ! A6    A(3,2,7)              122.5929         estimate D2E/DX2                !
 ! A7    A(2,3,4)              118.7136         estimate D2E/DX2                !
 ! A8    A(2,3,23)             121.0056         estimate D2E/DX2                !
 ! A9    A(4,3,23)             120.2791         estimate D2E/DX2                !
 ! A10   A(3,4,5)              118.6392         estimate D2E/DX2                !
 ! A11   A(3,4,22)             121.1499         estimate D2E/DX2                !
 ! A12   A(5,4,22)             120.21           estimate D2E/DX2                !
 ! A13   A(4,5,6)              123.3479         estimate D2E/DX2                !
 ! A14   A(4,5,21)             120.4132         estimate D2E/DX2                !
 ! A15   A(6,5,21)             116.2389         estimate D2E/DX2                !
 ! A16   A(1,6,5)              117.4819         estimate D2E/DX2                !
 ! A17   A(2,7,8)              117.9725         estimate D2E/DX2                !
 ! A18   A(2,7,11)             112.4003         estimate D2E/DX2                !
 ! A19   A(2,7,19)             109.1114         estimate D2E/DX2                !
 ! A20   A(8,7,11)             101.9801         estimate D2E/DX2                !
 ! A21   A(8,7,19)             109.8163         estimate D2E/DX2                !
 ! A22   A(11,7,19)            104.6269         estimate D2E/DX2                !
 ! A23   A(7,8,9)              105.3941         estimate D2E/DX2                !
 ! A24   A(7,8,16)             109.8607         estimate D2E/DX2                !
 ! A25   A(7,8,17)             110.1804         estimate D2E/DX2                !
 ! A26   A(9,8,16)             110.8814         estimate D2E/DX2                !
 ! A27   A(9,8,17)             113.1183         estimate D2E/DX2                !
 ! A28   A(16,8,17)            107.4094         estimate D2E/DX2                !
 ! A29   A(8,9,10)             105.409          estimate D2E/DX2                !
 ! A30   A(8,9,14)             111.9648         estimate D2E/DX2                !
 ! A31   A(8,9,15)             110.8822         estimate D2E/DX2                !
 ! A32   A(10,9,14)            110.0523         estimate D2E/DX2                !
 ! A33   A(10,9,15)            110.7765         estimate D2E/DX2                !
 ! A34   A(14,9,15)            107.7839         estimate D2E/DX2                !
 ! A35   A(9,10,11)            104.6399         estimate D2E/DX2                !
 ! A36   A(9,10,13)            112.3698         estimate D2E/DX2                !
 ! A37   A(9,10,18)            114.643          estimate D2E/DX2                !
 ! A38   A(11,10,13)           107.097          estimate D2E/DX2                !
 ! A39   A(11,10,18)           108.7298         estimate D2E/DX2                !
 ! A40   A(13,10,18)           108.9676         estimate D2E/DX2                !
 ! A41   A(7,11,10)            104.268          estimate D2E/DX2                !
 ! A42   A(7,11,24)            114.9508         estimate D2E/DX2                !
 ! A43   A(7,11,25)            107.885          estimate D2E/DX2                !
 ! A44   A(10,11,24)           114.6819         estimate D2E/DX2                !
 ! A45   A(10,11,25)           105.8121         estimate D2E/DX2                !
 ! A46   A(24,11,25)           108.6731         estimate D2E/DX2                !
 ! A47   A(25,12,26)           128.4895         estimate D2E/DX2                !
 ! A48   A(25,12,27)           122.3034         estimate D2E/DX2                !
 ! A49   A(26,12,27)           106.8313         estimate D2E/DX2                !
 ! A50   A(11,24,31)           108.894          estimate D2E/DX2                !
 ! A51   A(11,24,32)           108.9963         estimate D2E/DX2                !
 ! A52   A(11,24,33)           108.9897         estimate D2E/DX2                !
 ! A53   A(31,24,32)           110.0624         estimate D2E/DX2                !
 ! A54   A(31,24,33)           109.9586         estimate D2E/DX2                !
 ! A55   A(32,24,33)           109.9118         estimate D2E/DX2                !
 ! A56   A(27,28,29)           121.6002         estimate D2E/DX2                !
 ! A57   A(27,28,30)           120.3322         estimate D2E/DX2                !
 ! A58   A(29,28,30)           105.2955         estimate D2E/DX2                !
 ! A59   L(11,25,12,3,-1)      189.9451         estimate D2E/DX2                !
 ! A60   L(12,27,28,8,-1)      171.2337         estimate D2E/DX2                !
 ! A61   L(11,25,12,3,-2)      169.273          estimate D2E/DX2                !
 ! A62   L(12,27,28,8,-2)      177.4285         estimate D2E/DX2                !
 ! D1    D(6,1,2,3)             -0.0629         estimate D2E/DX2                !
 ! D2    D(6,1,2,7)           -179.5958         estimate D2E/DX2                !
 ! D3    D(20,1,2,3)          -179.6662         estimate D2E/DX2                !
 ! D4    D(20,1,2,7)             0.801          estimate D2E/DX2                !
 ! D5    D(2,1,6,5)              0.1152         estimate D2E/DX2                !
 ! D6    D(20,1,6,5)           179.7335         estimate D2E/DX2                !
 ! D7    D(1,2,3,4)             -0.0982         estimate D2E/DX2                !
 ! D8    D(1,2,3,23)          -179.6245         estimate D2E/DX2                !
 ! D9    D(7,2,3,4)            179.4199         estimate D2E/DX2                !
 ! D10   D(7,2,3,23)            -0.1065         estimate D2E/DX2                !
 ! D11   D(1,2,7,8)           -129.8053         estimate D2E/DX2                !
 ! D12   D(1,2,7,11)           111.9579         estimate D2E/DX2                !
 ! D13   D(1,2,7,19)            -3.6294         estimate D2E/DX2                !
 ! D14   D(3,2,7,8)             50.6854         estimate D2E/DX2                !
 ! D15   D(3,2,7,11)           -67.5514         estimate D2E/DX2                !
 ! D16   D(3,2,7,19)           176.8612         estimate D2E/DX2                !
 ! D17   D(2,3,4,5)              0.1972         estimate D2E/DX2                !
 ! D18   D(2,3,4,22)           179.8526         estimate D2E/DX2                !
 ! D19   D(23,3,4,5)           179.7272         estimate D2E/DX2                !
 ! D20   D(23,3,4,22)           -0.6175         estimate D2E/DX2                !
 ! D21   D(3,4,5,6)             -0.1509         estimate D2E/DX2                !
 ! D22   D(3,4,5,21)           179.8478         estimate D2E/DX2                !
 ! D23   D(22,4,5,6)          -179.8095         estimate D2E/DX2                !
 ! D24   D(22,4,5,21)            0.1891         estimate D2E/DX2                !
 ! D25   D(4,5,6,1)             -0.0057         estimate D2E/DX2                !
 ! D26   D(21,5,6,1)           179.9955         estimate D2E/DX2                !
 ! D27   D(2,7,8,9)           -155.5611         estimate D2E/DX2                !
 ! D28   D(2,7,8,16)           -36.0538         estimate D2E/DX2                !
 ! D29   D(2,7,8,17)            82.09           estimate D2E/DX2                !
 ! D30   D(11,7,8,9)           -31.9339         estimate D2E/DX2                !
 ! D31   D(11,7,8,16)           87.5734         estimate D2E/DX2                !
 ! D32   D(11,7,8,17)         -154.2828         estimate D2E/DX2                !
 ! D33   D(19,7,8,9)            78.6058         estimate D2E/DX2                !
 ! D34   D(19,7,8,16)         -161.8868         estimate D2E/DX2                !
 ! D35   D(19,7,8,17)          -43.743          estimate D2E/DX2                !
 ! D36   D(2,7,11,10)          170.5532         estimate D2E/DX2                !
 ! D37   D(2,7,11,24)          -63.0381         estimate D2E/DX2                !
 ! D38   D(2,7,11,25)           58.3745         estimate D2E/DX2                !
 ! D39   D(8,7,11,10)           43.2462         estimate D2E/DX2                !
 ! D40   D(8,7,11,24)          169.6549         estimate D2E/DX2                !
 ! D41   D(8,7,11,25)          -68.9325         estimate D2E/DX2                !
 ! D42   D(19,7,11,10)         -71.1812         estimate D2E/DX2                !
 ! D43   D(19,7,11,24)          55.2274         estimate D2E/DX2                !
 ! D44   D(19,7,11,25)         176.6401         estimate D2E/DX2                !
 ! D45   D(7,8,9,10)             9.6197         estimate D2E/DX2                !
 ! D46   D(7,8,9,14)          -110.0275         estimate D2E/DX2                !
 ! D47   D(7,8,9,15)           129.5514         estimate D2E/DX2                !
 ! D48   D(16,8,9,10)         -109.2086         estimate D2E/DX2                !
 ! D49   D(16,8,9,14)          131.1442         estimate D2E/DX2                !
 ! D50   D(16,8,9,15)           10.7231         estimate D2E/DX2                !
 ! D51   D(17,8,9,10)          130.0574         estimate D2E/DX2                !
 ! D52   D(17,8,9,14)           10.4102         estimate D2E/DX2                !
 ! D53   D(17,8,9,15)         -110.0109         estimate D2E/DX2                !
 ! D54   D(8,9,10,11)           16.8586         estimate D2E/DX2                !
 ! D55   D(8,9,10,13)          -98.9961         estimate D2E/DX2                !
 ! D56   D(8,9,10,18)          135.8692         estimate D2E/DX2                !
 ! D57   D(14,9,10,11)         137.7639         estimate D2E/DX2                !
 ! D58   D(14,9,10,13)          21.9092         estimate D2E/DX2                !
 ! D59   D(14,9,10,18)        -103.2255         estimate D2E/DX2                !
 ! D60   D(15,9,10,11)        -103.1428         estimate D2E/DX2                !
 ! D61   D(15,9,10,13)         141.0025         estimate D2E/DX2                !
 ! D62   D(15,9,10,18)          15.8678         estimate D2E/DX2                !
 ! D63   D(9,10,11,7)          -37.5559         estimate D2E/DX2                !
 ! D64   D(9,10,11,24)        -164.1326         estimate D2E/DX2                !
 ! D65   D(9,10,11,25)          76.1075         estimate D2E/DX2                !
 ! D66   D(13,10,11,7)          81.9089         estimate D2E/DX2                !
 ! D67   D(13,10,11,24)        -44.6678         estimate D2E/DX2                !
 ! D68   D(13,10,11,25)       -164.4277         estimate D2E/DX2                !
 ! D69   D(18,10,11,7)        -160.4866         estimate D2E/DX2                !
 ! D70   D(18,10,11,24)         72.9367         estimate D2E/DX2                !
 ! D71   D(18,10,11,25)        -46.8232         estimate D2E/DX2                !
 ! D72   D(7,11,12,26)        -117.6451         estimate D2E/DX2                !
 ! D73   D(7,11,12,27)          85.9372         estimate D2E/DX2                !
 ! D74   D(10,11,12,26)        134.494          estimate D2E/DX2                !
 ! D75   D(10,11,12,27)        -21.9236         estimate D2E/DX2                !
 ! D76   D(24,11,12,26)         13.4557         estimate D2E/DX2                !
 ! D77   D(24,11,12,27)       -142.962          estimate D2E/DX2                !
 ! D78   D(7,11,24,31)        -178.9526         estimate D2E/DX2                !
 ! D79   D(7,11,24,32)          60.9621         estimate D2E/DX2                !
 ! D80   D(7,11,24,33)         -58.9973         estimate D2E/DX2                !
 ! D81   D(10,11,24,31)        -58.0903         estimate D2E/DX2                !
 ! D82   D(10,11,24,32)       -178.1756         estimate D2E/DX2                !
 ! D83   D(10,11,24,33)         61.865          estimate D2E/DX2                !
 ! D84   D(25,11,24,31)         60.0646         estimate D2E/DX2                !
 ! D85   D(25,11,24,32)        -60.0207         estimate D2E/DX2                !
 ! D86   D(25,11,24,33)       -179.9801         estimate D2E/DX2                !
 ! D87   D(25,12,28,29)        103.7177         estimate D2E/DX2                !
 ! D88   D(25,12,28,30)       -116.6335         estimate D2E/DX2                !
 ! D89   D(26,12,28,29)        -60.8271         estimate D2E/DX2                !
 ! D90   D(26,12,28,30)         78.8217         estimate D2E/DX2                !
 --------------------------------------------------------------------------------
 Trust Radius=3.00D-01 FncErr=1.00D-07 GrdErr=1.00D-06 EigMax=2.50D+02 EigMin=1.00D-04
 Number of steps in this run=    196 maximum allowed number of steps=    198.
 GradGradGradGradGradGradGradGradGradGradGradGradGradGradGradGradGradGrad

                          Input orientation:                          
 ---------------------------------------------------------------------
 Center     Atomic      Atomic             Coordinates (Angstroms)
 Number     Number       Type             X           Y           Z
 ---------------------------------------------------------------------
      1          6           0        2.626973   -0.835615   -0.345770
      2          6           0        1.388218   -0.190141   -0.357288
      3          6           0        1.373390    1.194954   -0.163990
      4          6           0        2.579600    1.854241    0.030196
      5          6           0        3.760301    1.107137    0.020418
      6          7           0        3.790786   -0.213213   -0.163602
      7          6           0        0.134167   -0.992280   -0.562579
      8          6           0       -0.856492   -0.516003   -1.628078
      9          6           0       -2.228639   -1.089548   -1.199027
     10          6           0       -2.010749   -1.656872    0.212873
     11          7           0       -0.733845   -1.033706    0.677556
     12          8           0       -1.763065    1.471599    1.186309
     13          1           0       -1.856338   -2.742078    0.207172
     14          1           0       -2.570124   -1.881111   -1.872833
     15          1           0       -2.992912   -0.306338   -1.189006
     16          1           0       -0.880811    0.579310   -1.650749
     17          1           0       -0.539036   -0.856839   -2.617709
     18          1           0       -2.801259   -1.413923    0.929134
     19          1           0        0.404402   -2.041754   -0.747480
     20          1           0        2.682397   -1.917373   -0.498709
     21          1           0        4.724632    1.596103    0.167660
     22          1           0        2.614384    2.931726    0.182037
     23          1           0        0.435356    1.751198   -0.157031
     24          6           0       -0.116844   -1.690848    1.848721
     25          1           0       -0.973482   -0.052241    0.933437
     26          1           0       -1.664746    2.080613    1.921714
     27          1           0       -2.592212    1.712849    0.727868
     28          8           0       -4.035066    1.929873   -0.267783
     29          1           0       -4.919190    1.871885    0.106620
     30          1           0       -4.078344    2.643494   -0.911400
     31          1           0       -0.831443   -1.682111    2.677170
     32          1           0        0.788148   -1.143912    2.128079
     33          1           0        0.137489   -2.722984    1.585293
 ---------------------------------------------------------------------
                    Distance matrix (angstroms):
                    1          2          3          4          5
     1  C    0.000000
     2  C    1.396883   0.000000
     3  C    2.393267   1.398596   0.000000
     4  C    2.716417   2.397714   1.388276   0.000000
     5  C    2.278774   2.729903   2.395634   1.397253   0.000000
     6  N    1.332303   2.410473   2.797631   2.403933   1.333460
     7  C    2.507116   1.502736   2.545298   3.799238   4.230400
     8  C    3.725721   2.599965   3.169117   4.491621   5.164000
     9  C    4.936547   3.820878   4.389176   5.770273   6.494603
    10  C    4.742891   3.745579   4.441546   5.782092   6.401703
    11  N    3.518740   2.507121   3.180498   4.442773   5.021194
    12  O    5.190659   3.882609   3.425958   4.510183   5.656828
    13  H    4.903103   4.166310   5.105793   6.390228   6.811605
    14  H    5.516774   4.563412   5.285227   6.640334   7.251780
    15  H    5.707389   4.460892   4.729601   6.099791   7.004749
    16  H    4.001191   2.722791   2.769638   4.052835   4.960980
    17  H    3.896892   3.044388   3.726656   4.907876   5.413060
    18  H    5.605847   4.550191   5.042703   6.359452   7.087706
    19  H    2.560462   2.132748   3.428655   4.529354   4.665537
    20  H    1.093921   2.162922   3.392951   3.809905   3.252542
    21  H    3.252236   3.820719   3.391421   2.164877   1.091193
    22  H    3.804155   3.397118   2.162447   1.088687   2.160641
    23  H    3.395646   2.171830   1.090579   2.154868   3.391395
    24  C    3.616040   3.063300   3.820950   4.810977   5.118952
    25  H    3.900426   2.694924   2.875352   4.132180   4.958474
    26  H    5.662572   4.435173   3.790095   4.652264   5.830413
    27  H    5.906544   4.543430   4.097515   5.220573   6.420420
    28  O    7.213652   5.823614   5.459146   6.621806   7.843960
    29  H    8.029931   6.652109   6.334669   7.499200   8.713543
    30  H    7.575316   6.182219   5.690193   6.770358   8.041955
    31  H    4.670692   4.044849   4.605538   5.580992   5.993526
    32  H    3.097782   2.728885   3.326617   4.074228   4.282890
    33  H    3.672696   3.428300   4.465163   5.416015   5.499402
                    6          7          8          9         10
     6  N    0.000000
     7  C    3.759919   0.000000
     8  C    4.881963   1.530860   0.000000
     9  C    6.170376   2.448955   1.547846   0.000000
    10  C    5.990300   2.375642   2.454178   1.537138   0.000000
    11  N    4.674724   1.514297   2.366222   2.399811   1.494908
    12  O    5.958701   3.567744   3.562753   3.530731   3.285766
    13  H    6.198600   2.759786   3.053399   2.201558   1.096151
    14  H    6.794448   3.133684   2.204532   1.094166   2.171026
    15  H    6.861391   3.262139   2.191126   1.094364   2.180333
    16  H    4.966238   2.164299   1.095817   2.192209   3.122556
    17  H    5.018392   2.166819   1.093763   2.218461   3.289101
    18  H    6.789023   3.319596   3.335823   2.227596   1.094057
    19  H    3.892566   1.099368   2.166385   2.836106   2.627426
    20  H    2.060336   2.711707   3.970270   5.029315   4.753928
    21  H    2.062869   5.320277   6.231742   7.578162   7.479923
    22  H    3.375504   4.701463   5.216352   6.444599   6.515216
    23  H    3.888170   2.789598   2.995505   4.031434   4.211318
    24  C    4.637070   2.522969   3.743724   3.756329   2.502804
    25  H    4.891590   2.085335   2.605786   2.683063   2.042052
    26  H    6.274792   4.341713   4.471768   4.484074   4.124154
    27  H    6.726596   4.051681   3.678449   3.420313   3.458083
    28  O    8.114655   5.099842   4.235097   3.639684   4.146520
    29  H    8.960153   5.847024   5.021623   4.208784   4.574106
    30  H    8.404950   5.575462   4.569068   4.176092   4.902253
    31  H    5.620734   3.450253   4.460448   4.162714   2.732061
    32  H    3.890223   2.773143   4.148232   4.491502   3.430010
    33  H    4.764889   2.758387   4.022998   4.002388   2.763161
                   11         12         13         14         15
    11  N    0.000000
    12  O    2.755844   0.000000
    13  H    2.097567   4.326948   0.000000
    14  H    3.254919   4.609811   2.361604   0.000000
    15  H    3.019355   3.211807   3.028852   1.768129   0.000000
    16  H    2.836269   3.102169   3.928758   2.992787   2.336354
    17  H    3.305753   4.624978   3.642714   2.393594   2.892361
    18  H    2.117087   3.077373   1.782723   2.850036   2.397914
    19  H    2.083865   4.558629   2.552011   3.184341   3.840359
    20  H    3.719567   5.838369   4.666746   5.429411   5.939788
    21  H    6.080367   6.568360   7.882293   8.334752   8.063517
    22  H    5.213524   4.722562   7.223575   7.366479   6.618654
    23  H    3.133569   2.591485   5.057078   5.017027   4.129340
    24  C    1.477888   3.626280   2.612586   4.461474   4.406407
    25  H    1.042197   1.734784   2.922690   3.710685   2.940651
    26  H    3.480444   0.959888   5.121983   5.559996   4.139824
    27  H    3.316568   0.977678   4.545218   4.436291   2.812842
    28  O    4.535915   2.736126   5.176830   4.387008   2.633510
    29  H    5.126943   3.359625   5.538937   4.849879   3.183371
    30  H    5.218453   3.336801   5.932360   4.865299   3.155430
    31  H    2.104379   3.610606   2.876600   4.874950   4.638105
    32  H    2.105380   3.773131   3.638313   5.275296   5.099117
    33  H    2.106388   4.622318   2.423825   4.471974   4.830768
                   16         17         18         19         20
    16  H    0.000000
    17  H    1.764751   0.000000
    18  H    3.783767   4.243594   0.000000
    19  H    3.055756   2.406627   3.671712   0.000000
    20  H    4.500786   3.999065   5.688821   2.294912   0.000000
    21  H    5.980090   6.440606   8.141200   5.721527   4.118165
    22  H    4.594492   5.668850   6.983696   5.521189   4.897122
    23  H    2.310154   3.715674   4.655472   3.838759   4.315594
    24  C    4.240702   4.563202   2.851037   2.671159   3.660258
    25  H    2.661853   3.666982   2.279247   2.946559   4.346862
    26  H    3.953600   5.522880   3.806397   5.329154   6.382789
    27  H    3.141914   4.691664   3.140209   5.025275   6.519548
    28  O    3.699451   5.050757   3.759769   5.976019   7.744607
    29  H    4.589946   5.835551   3.994834   6.662334   8.515223
    30  H    3.877075   5.262179   4.634776   6.486403   8.165748
    31  H    4.883374   5.366779   2.647212   3.658536   4.742218
    32  H    4.475987   4.936226   3.793971   3.036811   3.329630
    33  H    4.734348   4.648162   3.283356   2.444820   3.386537
                   21         22         23         24         25
    21  H    0.000000
    22  H    2.497447   0.000000
    23  H    4.304343   2.501355   0.000000
    24  C    6.088506   5.621889   4.021896   0.000000
    25  H    5.980966   4.726674   2.535022   2.063154   0.000000
    26  H    6.643463   4.697001   2.973235   4.077407   2.450225
    27  H    7.339187   5.375150   3.154471   4.355331   2.403765
    28  O    8.776863   6.739528   4.475362   5.739484   3.839922
    29  H    9.647958   7.608133   5.362391   6.228203   4.467046
    30  H    8.930497   6.787584   4.662484   6.488318   4.506726
    31  H    6.922015   6.275899   4.628724   1.094100   2.391078
    32  H    5.181393   4.871657   3.705112   1.093705   2.392124
    33  H    6.458024   6.330867   4.810688   1.095164   2.965138
                   26         27         28         29         30
    26  H    0.000000
    27  H    1.555864   0.000000
    28  O    3.230331   1.766422   0.000000
    29  H    3.732230   2.413725   0.961881   0.000000
    30  H    3.764150   2.400393   0.961962   1.529303   0.000000
    31  H    3.927238   4.292533   5.655296   5.995689   6.490844
    32  H    4.056703   4.642037   6.200944   6.764247   6.875000
    33  H    5.141573   5.278547   6.518680   6.990658   7.266761
                   31         32         33
    31  H    0.000000
    32  H    1.792829   0.000000
    33  H    1.792886   1.792050   0.000000
 Stoichiometry    C10H19N2O2(1+)
 Framework group  C1[X(C10H19N2O2)]
 Deg. of freedom    93
 Full point group                 C1      NOp   1
 Largest Abelian subgroup         C1      NOp   1
 Largest concise Abelian subgroup C1      NOp   1
                         Standard orientation:                         
 ---------------------------------------------------------------------
 Center     Atomic      Atomic             Coordinates (Angstroms)
 Number     Number       Type             X           Y           Z
 ---------------------------------------------------------------------
      1          6           0        2.626973   -0.835615   -0.345770
      2          6           0        1.388218   -0.190141   -0.357288
      3          6           0        1.373390    1.194954   -0.163990
      4          6           0        2.579600    1.854241    0.030196
      5          6           0        3.760301    1.107137    0.020418
      6          7           0        3.790786   -0.213213   -0.163602
      7          6           0        0.134167   -0.992280   -0.562579
      8          6           0       -0.856492   -0.516003   -1.628078
      9          6           0       -2.228639   -1.089548   -1.199027
     10          6           0       -2.010749   -1.656872    0.212873
     11          7           0       -0.733845   -1.033706    0.677556
     12          8           0       -1.763065    1.471599    1.186309
     13          1           0       -1.856338   -2.742078    0.207172
     14          1           0       -2.570124   -1.881111   -1.872833
     15          1           0       -2.992912   -0.306338   -1.189006
     16          1           0       -0.880811    0.579310   -1.650749
     17          1           0       -0.539036   -0.856839   -2.617709
     18          1           0       -2.801259   -1.413923    0.929134
     19          1           0        0.404402   -2.041754   -0.747480
     20          1           0        2.682397   -1.917373   -0.498709
     21          1           0        4.724632    1.596103    0.167660
     22          1           0        2.614384    2.931726    0.182037
     23          1           0        0.435356    1.751198   -0.157031
     24          6           0       -0.116844   -1.690848    1.848721
     25          1           0       -0.973482   -0.052241    0.933437
     26          1           0       -1.664746    2.080613    1.921714
     27          1           0       -2.592212    1.712849    0.727868
     28          8           0       -4.035066    1.929873   -0.267783
     29          1           0       -4.919190    1.871885    0.106620
     30          1           0       -4.078344    2.643494   -0.911400
     31          1           0       -0.831443   -1.682111    2.677170
     32          1           0        0.788148   -1.143912    2.128079
     33          1           0        0.137489   -2.722984    1.585293
 ---------------------------------------------------------------------
 Rotational constants (GHZ):           0.9734247           0.3898818           0.3401589
 Standard basis: Aug-CC-pVDZ (5D, 7F)
 There are   521 symmetry adapted cartesian basis functions of A   symmetry.
 There are   493 symmetry adapted basis functions of A   symmetry.
   493 basis functions,   811 primitive gaussians,   521 cartesian basis functions
    54 alpha electrons       54 beta electrons
       nuclear repulsion energy       956.8030857996 Hartrees.
 NAtoms=   33 NActive=   33 NUniq=   33 SFac= 1.00D+00 NAtFMM=   60 NAOKFM=F Big=F
 Integral buffers will be    131072 words long.
 Raffenetti 2 integral format.
 Two-electron integral symmetry is turned on.
 Nuclear repulsion after empirical dispersion term =      956.7771882659 Hartrees.
 One-electron integrals computed using PRISM.
 NBasis=   493 RedAO= T EigKep=  2.29D-06  NBF=   493
 NBsUse=   493 1.00D-06 EigRej= -1.00D+00 NBFU=   493
 ExpMin= 2.97D-02 ExpMax= 1.17D+04 ExpMxC= 4.01D+02 IAcc=3 IRadAn=         5 AccDes= 0.00D+00
 Harris functional with IExCor= 4639 and IRadAn=       5 diagonalized for initial guess.
 HarFok:  IExCor= 4639 AccDes= 0.00D+00 IRadAn=         5 IDoV= 1 UseB2=F ITyADJ=14
 ICtDFT=  3500011 ScaDFX=  1.000000  1.000000  1.000000  1.000000
 FoFCou: FMM=F IPFlag=           0 FMFlag=      100000 FMFlg1=           0
         NFxFlg=           0 DoJE=T BraDBF=F KetDBF=T FulRan=T
         wScrn=  0.000000 ICntrl=       500 IOpCl=  0 I1Cent=   200000004 NGrid=           0
         NMat0=    1 NMatS0=      1 NMatT0=    0 NMatD0=    1 NMtDS0=    0 NMtDT0=    0
 Petite list used in FoFCou.
 Requested convergence on RMS density matrix=1.00D-08 within 128 cycles.
 Requested convergence on MAX density matrix=1.00D-06.
 Requested convergence on             energy=1.00D-06.
 No special actions if energy rises.
 SCF Done:  E(RwB97XD) =  -652.152837584     A.U. after   14 cycles
            NFock= 14  Conv=0.74D-08     -V/T= 2.0064

 **********************************************************************

            Population analysis using the SCF density.

 **********************************************************************

 Orbital symmetries:
       Occupied  (A) (A) (A) (A) (A) (A) (A) (A) (A) (A) (A) (A)
                 (A) (A) (A) (A) (A) (A) (A) (A) (A) (A) (A) (A)
                 (A) (A) (A) (A) (A) (A) (A) (A) (A) (A) (A) (A)
                 (A) (A) (A) (A) (A) (A) (A) (A) (A) (A) (A) (A)
                 (A) (A) (A) (A) (A) (A)
       Virtual   (A) (A) (A) (A) (A) (A) (A) (A) (A) (A) (A) (A)
                 (A) (A) (A) (A) (A) (A) (A) (A) (A) (A) (A) (A)
                 (A) (A) (A) (A) (A) (A) (A) (A) (A) (A) (A) (A)
                 (A) (A) (A) (A) (A) (A) (A) (A) (A) (A) (A) (A)
                 (A) (A) (A) (A) (A) (A) (A) (A) (A) (A) (A) (A)
                 (A) (A) (A) (A) (A) (A) (A) (A) (A) (A) (A) (A)
                 (A) (A) (A) (A) (A) (A) (A) (A) (A) (A) (A) (A)
                 (A) (A) (A) (A) (A) (A) (A) (A) (A) (A) (A) (A)
                 (A) (A) (A) (A) (A) (A) (A) (A) (A) (A) (A) (A)
                 (A) (A) (A) (A) (A) (A) (A) (A) (A) (A) (A) (A)
                 (A) (A) (A) (A) (A) (A) (A) (A) (A) (A) (A) (A)
                 (A) (A) (A) (A) (A) (A) (A) (A) (A) (A) (A) (A)
                 (A) (A) (A) (A) (A) (A) (A) (A) (A) (A) (A) (A)
                 (A) (A) (A) (A) (A) (A) (A) (A) (A) (A) (A) (A)
                 (A) (A) (A) (A) (A) (A) (A) (A) (A) (A) (A) (A)
                 (A) (A) (A) (A) (A) (A) (A) (A) (A) (A) (A) (A)
                 (A) (A) (A) (A) (A) (A) (A) (A) (A) (A) (A) (A)
                 (A) (A) (A) (A) (A) (A) (A) (A) (A) (A) (A) (A)
                 (A) (A) (A) (A) (A) (A) (A) (A) (A) (A) (A) (A)
                 (A) (A) (A) (A) (A) (A) (A) (A) (A) (A) (A) (A)
                 (A) (A) (A) (A) (A) (A) (A) (A) (A) (A) (A) (A)
                 (A) (A) (A) (A) (A) (A) (A) (A) (A) (A) (A) (A)
                 (A) (A) (A) (A) (A) (A) (A) (A) (A) (A) (A) (A)
                 (A) (A) (A) (A) (A) (A) (A) (A) (A) (A) (A) (A)
                 (A) (A) (A) (A) (A) (A) (A) (A) (A) (A) (A) (A)
                 (A) (A) (A) (A) (A) (A) (A) (A) (A) (A) (A) (A)
                 (A) (A) (A) (A) (A) (A) (A) (A) (A) (A) (A) (A)
                 (A) (A) (A) (A) (A) (A) (A) (A) (A) (A) (A) (A)
                 (A) (A) (A) (A) (A) (A) (A) (A) (A) (A) (A) (A)
                 (A) (A) (A) (A) (A) (A) (A) (A) (A) (A) (A) (A)
                 (A) (A) (A) (A) (A) (A) (A) (A) (A) (A) (A) (A)
                 (A) (A) (A) (A) (A) (A) (A) (A) (A) (A) (A) (A)
                 (A) (A) (A) (A) (A) (A) (A) (A) (A) (A) (A) (A)
                 (A) (A) (A) (A) (A) (A) (A) (A) (A) (A) (A) (A)
                 (A) (A) (A) (A) (A) (A) (A) (A) (A) (A) (A) (A)
                 (A) (A) (A) (A) (A) (A) (A) (A) (A) (A) (A) (A)
                 (A) (A) (A) (A) (A) (A) (A)
 The electronic state is 1-A.
 Alpha  occ. eigenvalues --  -19.43419 -19.41882 -14.69378 -14.55997 -10.49582
 Alpha  occ. eigenvalues --  -10.48818 -10.48389 -10.45225 -10.44605 -10.44123
 Alpha  occ. eigenvalues --  -10.44035 -10.43935 -10.43886 -10.42315  -1.27880
 Alpha  occ. eigenvalues --   -1.26417  -1.25319  -1.16316  -1.06120  -1.04080
 Alpha  occ. eigenvalues --   -1.00315  -0.96209  -0.94751  -0.89014  -0.84615
 Alpha  occ. eigenvalues --   -0.84541  -0.82886  -0.77915  -0.77670  -0.77350
 Alpha  occ. eigenvalues --   -0.74904  -0.72254  -0.71878  -0.69726  -0.68922
 Alpha  occ. eigenvalues --   -0.66678  -0.66242  -0.64375  -0.64237  -0.63027
 Alpha  occ. eigenvalues --   -0.62300  -0.61742  -0.60656  -0.60424  -0.58758
 Alpha  occ. eigenvalues --   -0.58385  -0.57977  -0.56481  -0.56046  -0.55378
 Alpha  occ. eigenvalues --   -0.54961  -0.48369  -0.45637  -0.44992
 Alpha virt. eigenvalues --   -0.08633  -0.08254  -0.07098  -0.06321  -0.05716
 Alpha virt. eigenvalues --   -0.05095  -0.03951  -0.03596  -0.03108  -0.03004
 Alpha virt. eigenvalues --   -0.02764  -0.01501  -0.01422  -0.00939  -0.00807
 Alpha virt. eigenvalues --   -0.00566  -0.00217   0.00715   0.00763   0.01312
 Alpha virt. eigenvalues --    0.01697   0.02029   0.02505   0.02698   0.03397
 Alpha virt. eigenvalues --    0.03642   0.04066   0.04519   0.05022   0.05238
 Alpha virt. eigenvalues --    0.05375   0.05460   0.05514   0.05886   0.06143
 Alpha virt. eigenvalues --    0.06281   0.06634   0.06927   0.07151   0.07386
 Alpha virt. eigenvalues --    0.07734   0.07976   0.08196   0.08404   0.09069
 Alpha virt. eigenvalues --    0.09508   0.09825   0.10092   0.10409   0.10571
 Alpha virt. eigenvalues --    0.10642   0.11127   0.11539   0.11908   0.11978
 Alpha virt. eigenvalues --    0.12181   0.12823   0.13200   0.13364   0.13864
 Alpha virt. eigenvalues --    0.14297   0.14725   0.15177   0.15295   0.15860
 Alpha virt. eigenvalues --    0.16095   0.16158   0.16592   0.17056   0.17328
 Alpha virt. eigenvalues --    0.17456   0.18209   0.18697   0.19206   0.19531
 Alpha virt. eigenvalues --    0.19796   0.20254   0.20516   0.21106   0.21391
 Alpha virt. eigenvalues --    0.21792   0.22147   0.22504   0.22735   0.23164
 Alpha virt. eigenvalues --    0.23292   0.23878   0.24464   0.24564   0.25016
 Alpha virt. eigenvalues --    0.25351   0.26067   0.26613   0.26692   0.27083
 Alpha virt. eigenvalues --    0.27391   0.28098   0.28361   0.28653   0.28930
 Alpha virt. eigenvalues --    0.29323   0.29862   0.30480   0.30774   0.31273
 Alpha virt. eigenvalues --    0.31564   0.31704   0.32218   0.32684   0.32842
 Alpha virt. eigenvalues --    0.33509   0.33650   0.34374   0.34462   0.35787
 Alpha virt. eigenvalues --    0.36160   0.37310   0.37713   0.38002   0.38532
 Alpha virt. eigenvalues --    0.38940   0.39562   0.39991   0.40619   0.40997
 Alpha virt. eigenvalues --    0.41584   0.41934   0.42163   0.42899   0.43153
 Alpha virt. eigenvalues --    0.43456   0.43606   0.43894   0.44212   0.44572
 Alpha virt. eigenvalues --    0.45336   0.45955   0.46460   0.46631   0.47734
 Alpha virt. eigenvalues --    0.48052   0.48377   0.48861   0.49347   0.50040
 Alpha virt. eigenvalues --    0.50387   0.50606   0.50841   0.51327   0.51946
 Alpha virt. eigenvalues --    0.52102   0.52578   0.53493   0.53804   0.54238
 Alpha virt. eigenvalues --    0.54744   0.55270   0.55445   0.55675   0.56280
 Alpha virt. eigenvalues --    0.56655   0.57393   0.57817   0.58430   0.58761
 Alpha virt. eigenvalues --    0.59022   0.59510   0.59818   0.60151   0.60645
 Alpha virt. eigenvalues --    0.61316   0.61865   0.62054   0.62494   0.62662
 Alpha virt. eigenvalues --    0.63133   0.63914   0.64384   0.65033   0.65619
 Alpha virt. eigenvalues --    0.65674   0.66453   0.66728   0.67867   0.68082
 Alpha virt. eigenvalues --    0.68982   0.69105   0.69563   0.70173   0.70461
 Alpha virt. eigenvalues --    0.70576   0.70930   0.71509   0.72240   0.72547
 Alpha virt. eigenvalues --    0.73241   0.73678   0.74529   0.74679   0.75317
 Alpha virt. eigenvalues --    0.76351   0.77164   0.77348   0.77661   0.78226
 Alpha virt. eigenvalues --    0.78850   0.79103   0.80181   0.80997   0.81711
 Alpha virt. eigenvalues --    0.81878   0.82214   0.83153   0.84104   0.85070
 Alpha virt. eigenvalues --    0.85645   0.86102   0.87066   0.88108   0.89300
 Alpha virt. eigenvalues --    0.89940   0.91354   0.91638   0.92352   0.92480
 Alpha virt. eigenvalues --    0.94045   0.94887   0.95485   0.95846   0.96576
 Alpha virt. eigenvalues --    0.97145   0.98926   0.99405   1.00182   1.00983
 Alpha virt. eigenvalues --    1.01157   1.02571   1.03160   1.03219   1.04069
 Alpha virt. eigenvalues --    1.05375   1.06406   1.07168   1.08164   1.08947
 Alpha virt. eigenvalues --    1.09816   1.11178   1.12049   1.12884   1.14077
 Alpha virt. eigenvalues --    1.14407   1.14991   1.15906   1.18458   1.18659
 Alpha virt. eigenvalues --    1.19701   1.19908   1.22700   1.24895   1.25664
 Alpha virt. eigenvalues --    1.27416   1.27706   1.29677   1.30790   1.32634
 Alpha virt. eigenvalues --    1.33243   1.33695   1.34915   1.35954   1.36556
 Alpha virt. eigenvalues --    1.38083   1.38698   1.39707   1.40392   1.42446
 Alpha virt. eigenvalues --    1.42827   1.44015   1.44778   1.44978   1.47322
 Alpha virt. eigenvalues --    1.47893   1.48175   1.48447   1.50426   1.50687
 Alpha virt. eigenvalues --    1.50977   1.51923   1.53482   1.54189   1.55436
 Alpha virt. eigenvalues --    1.56550   1.57675   1.58368   1.59324   1.59663
 Alpha virt. eigenvalues --    1.60087   1.61419   1.61846   1.64205   1.65346
 Alpha virt. eigenvalues --    1.66106   1.66888   1.68072   1.68882   1.69348
 Alpha virt. eigenvalues --    1.70312   1.71849   1.72283   1.73097   1.73857
 Alpha virt. eigenvalues --    1.74618   1.75003   1.75317   1.76677   1.78094
 Alpha virt. eigenvalues --    1.78275   1.79463   1.80177   1.80709   1.81118
 Alpha virt. eigenvalues --    1.81971   1.82627   1.84532   1.85488   1.86332
 Alpha virt. eigenvalues --    1.86626   1.87048   1.88464   1.89746   1.89824
 Alpha virt. eigenvalues --    1.91941   1.92810   1.94437   1.94722   1.95259
 Alpha virt. eigenvalues --    1.95680   1.96839   1.98729   1.98975   1.99277
 Alpha virt. eigenvalues --    2.00675   2.02062   2.02944   2.03172   2.06167
 Alpha virt. eigenvalues --    2.06582   2.07646   2.07962   2.09864   2.10180
 Alpha virt. eigenvalues --    2.11601   2.12018   2.13726   2.14285   2.14708
 Alpha virt. eigenvalues --    2.15993   2.17079   2.18419   2.20037   2.20674
 Alpha virt. eigenvalues --    2.21518   2.22112   2.23363   2.23884   2.24351
 Alpha virt. eigenvalues --    2.25495   2.28335   2.28892   2.29380   2.30188
 Alpha virt. eigenvalues --    2.30359   2.31460   2.34222   2.35172   2.37579
 Alpha virt. eigenvalues --    2.38320   2.39755   2.40956   2.42594   2.43282
 Alpha virt. eigenvalues --    2.45199   2.45441   2.46869   2.48497   2.49408
 Alpha virt. eigenvalues --    2.50780   2.52454   2.52890   2.54215   2.55815
 Alpha virt. eigenvalues --    2.56207   2.57283   2.59704   2.60091   2.62755
 Alpha virt. eigenvalues --    2.64028   2.65356   2.66601   2.66855   2.70940
 Alpha virt. eigenvalues --    2.71237   2.72064   2.73424   2.76509   2.77309
 Alpha virt. eigenvalues --    2.77624   2.79970   2.80231   2.80936   2.82349
 Alpha virt. eigenvalues --    2.85526   2.87860   2.91132   2.92115   2.94637
 Alpha virt. eigenvalues --    2.96374   2.97850   3.05732   3.09309   3.11763
 Alpha virt. eigenvalues --    3.15042   3.22244   3.27702   3.33604   3.35304
 Alpha virt. eigenvalues --    3.36548   3.40411   3.43655   3.44321   3.47962
 Alpha virt. eigenvalues --    3.50299   3.54965   3.66702   3.83523   3.85264
 Alpha virt. eigenvalues --    3.88439   4.02801   4.05016   4.86684
          Condensed to atoms (all electrons):
               1          2          3          4          5          6
     1  C   13.899865  -2.115793  -1.079431  -1.225934  -0.585230  -0.037373
     2  C   -2.115793  16.296954  -5.583965   0.104356  -0.664506   0.127011
     3  C   -1.079431  -5.583965  19.560662  -4.634768   1.461722  -0.852423
     4  C   -1.225934   0.104356  -4.634768  12.030750  -2.076283   0.772146
     5  C   -0.585230  -0.664506   1.461722  -2.076283   8.991398  -0.215622
     6  N   -0.037373   0.127011  -0.852423   0.772146  -0.215622   7.410318
     7  C   -3.030778  -5.638721  -1.568172   1.273824  -1.233351   0.540557
     8  C    0.029936   0.474448  -0.615727  -0.022551  -0.006984  -0.018854
     9  C   -0.055611   0.197173   0.170925   0.012235   0.000231   0.011475
    10  C   -0.071923  -0.221349  -0.214105   0.063168  -0.022059   0.005418
    11  N   -0.030539   0.890992  -0.428156  -0.033773   0.076075  -0.030394
    12  O   -0.003946   0.014344  -0.052777  -0.026389   0.005615   0.000146
    13  H    0.017321   0.089065  -0.004316  -0.003748   0.001621  -0.000376
    14  H    0.006209  -0.010176   0.013482   0.000090   0.001321  -0.000052
    15  H   -0.009118  -0.119696  -0.021786   0.003025  -0.003423   0.001290
    16  H   -0.029858   0.089423  -0.017416   0.024610   0.000941   0.001379
    17  H    0.078419   0.162079   0.113748  -0.034703   0.026150  -0.011063
    18  H   -0.007109  -0.085170  -0.000920   0.006163  -0.001383   0.001013
    19  H    0.212736   0.753400  -0.210060   0.006645  -0.002681  -0.020876
    20  H   -0.334260  -0.068724   0.096879  -0.087026   0.136723  -0.166362
    21  H   -0.055247   0.094865   0.248176  -0.240097  -0.076919  -0.074802
    22  H    0.164355  -0.239676   0.790973  -1.014906   0.339499  -0.158754
    23  H   -0.047070  -0.227745  -2.371952   0.673997  -0.277342   0.066418
    24  C    0.092493   0.294803  -0.207599   0.047695   0.007080  -0.021186
    25  H   -0.024879  -0.220865   0.104873  -0.107915   0.032933  -0.007133
    26  H   -0.005068   0.009585   0.005121   0.003722  -0.000062   0.000300
    27  H    0.005230  -0.001189  -0.012234   0.002655  -0.001816  -0.000070
    28  O   -0.001343  -0.008785   0.004213   0.001833  -0.000333   0.000018
    29  H    0.000032  -0.000088   0.000235  -0.000089   0.000053  -0.000008
    30  H   -0.000178   0.001993  -0.000627   0.000678  -0.000078   0.000011
    31  H    0.016405   0.003054  -0.006032   0.001869   0.006290  -0.005092
    32  H   -0.026864   0.080371   0.080077   0.016988  -0.010159   0.011624
    33  H    0.026248   0.037674  -0.063608   0.012238  -0.006830   0.002147
               7          8          9         10         11         12
     1  C   -3.030778   0.029936  -0.055611  -0.071923  -0.030539  -0.003946
     2  C   -5.638721   0.474448   0.197173  -0.221349   0.890992   0.014344
     3  C   -1.568172  -0.615727   0.170925  -0.214105  -0.428156  -0.052777
     4  C    1.273824  -0.022551   0.012235   0.063168  -0.033773  -0.026389
     5  C   -1.233351  -0.006984   0.000231  -0.022059   0.076075   0.005615
     6  N    0.540557  -0.018854   0.011475   0.005418  -0.030394   0.000146
     7  C   23.160048  -2.103665   0.604276  -0.505880  -3.621770   0.023819
     8  C   -2.103665   8.143731  -1.502924   0.744788  -0.298370   0.018082
     9  C    0.604276  -1.502924   7.709230  -0.704076  -1.219790   0.009984
    10  C   -0.505880   0.744788  -0.704076   5.732069   0.270491   0.005720
    11  N   -3.621770  -0.298370  -1.219790   0.270491  13.504484  -0.151183
    12  O    0.023819   0.018082   0.009984   0.005720  -0.151183   8.198072
    13  H    0.023386   0.081657  -0.019942  -0.216518  -0.057313  -0.009262
    14  H   -0.079496   0.250746  -0.303430   0.222483  -0.142023  -0.006117
    15  H    0.190083   0.354993  -0.701413   0.170464   0.212431   0.019032
    16  H   -0.368336  -0.193092   0.346635   0.032519  -0.259138   0.011476
    17  H    0.192238  -0.816569   0.144206  -0.143870   0.291521   0.000618
    18  H    0.558211  -0.083540   0.351558  -0.349053  -1.094054   0.038961
    19  H   -3.081847   0.762652  -0.014478   0.068294  -0.437355   0.003173
    20  H    0.032720  -0.047293  -0.010805   0.000606   0.063598  -0.000959
    21  H   -0.009554   0.003429   0.000475  -0.001253   0.000558   0.000195
    22  H   -0.137128  -0.005800  -0.001038   0.002668   0.010072   0.001900
    23  H    0.642888   0.062062   0.023766   0.031455  -0.213433  -0.041971
    24  C   -0.899070  -0.038019  -0.307641   0.002077   1.280508   0.025627
    25  H    0.223094  -0.088919   0.248549  -0.180742  -0.069023  -0.111597
    26  H   -0.026263   0.006361  -0.001869   0.016399  -0.008129   0.345582
    27  H    0.034104  -0.013531   0.035350  -0.046446   0.018346   0.291085
    28  O   -0.010048   0.033381  -0.103736   0.049986   0.030286  -0.066206
    29  H    0.001808  -0.000263   0.003177  -0.005398   0.000725   0.001272
    30  H   -0.003016  -0.002969   0.002337   0.001004   0.004156   0.001778
    31  H   -0.031558  -0.072821   0.061140   0.035194  -0.197381   0.010065
    32  H    0.014623   0.073445  -0.050794  -0.092109   0.065277   0.003952
    33  H   -0.061901   0.057203  -0.001875   0.123674  -0.328512  -0.004076
              13         14         15         16         17         18
     1  C    0.017321   0.006209  -0.009118  -0.029858   0.078419  -0.007109
     2  C    0.089065  -0.010176  -0.119696   0.089423   0.162079  -0.085170
     3  C   -0.004316   0.013482  -0.021786  -0.017416   0.113748  -0.000920
     4  C   -0.003748   0.000090   0.003025   0.024610  -0.034703   0.006163
     5  C    0.001621   0.001321  -0.003423   0.000941   0.026150  -0.001383
     6  N   -0.000376  -0.000052   0.001290   0.001379  -0.011063   0.001013
     7  C    0.023386  -0.079496   0.190083  -0.368336   0.192238   0.558211
     8  C    0.081657   0.250746   0.354993  -0.193092  -0.816569  -0.083540
     9  C   -0.019942  -0.303430  -0.701413   0.346635   0.144206   0.351558
    10  C   -0.216518   0.222483   0.170464   0.032519  -0.143870  -0.349053
    11  N   -0.057313  -0.142023   0.212431  -0.259138   0.291521  -1.094054
    12  O   -0.009262  -0.006117   0.019032   0.011476   0.000618   0.038961
    13  H    2.485114  -0.304874   0.195630  -0.060093   0.057284  -0.679287
    14  H   -0.304874   2.083655  -0.606965   0.198052  -0.295328   0.164210
    15  H    0.195630  -0.606965   2.308469  -0.415568   0.149226  -0.336550
    16  H   -0.060093   0.198052  -0.415568   2.372114  -0.648769   0.062346
    17  H    0.057284  -0.295328   0.149226  -0.648769   2.443940  -0.040159
    18  H   -0.679287   0.164210  -0.336550   0.062346  -0.040159   2.996473
    19  H   -0.150973   0.065721  -0.050089   0.272679  -0.314089   0.115708
    20  H    0.002325   0.001144  -0.001874  -0.005802   0.016278  -0.002234
    21  H   -0.000023   0.000042  -0.000055  -0.000528   0.000974  -0.000080
    22  H   -0.000142   0.000251  -0.000693   0.007119  -0.001882   0.000064
    23  H    0.005236  -0.010520   0.024408  -0.120662   0.032139  -0.002635
    24  C    0.045560  -0.040029   0.040830  -0.094421   0.085379  -0.251541
    25  H   -0.045707   0.014778  -0.053049   0.093731  -0.023892   0.136068
    26  H    0.000705   0.000100  -0.001874   0.002291  -0.000113  -0.001552
    27  H    0.000361   0.001460  -0.003033   0.002825  -0.000485   0.008037
    28  O   -0.000883   0.001616  -0.016373   0.010502  -0.000586   0.004913
    29  H    0.000281  -0.000686   0.003653  -0.001432   0.000239  -0.002069
    30  H   -0.000451   0.000898  -0.001065   0.001000  -0.000259  -0.000080
    31  H    0.017447  -0.003906   0.010566  -0.013699   0.003903  -0.028010
    32  H    0.011226  -0.001094  -0.003560   0.002564   0.002742   0.001998
    33  H    0.011513   0.003091  -0.003244   0.005230   0.004172   0.031872
              19         20         21         22         23         24
     1  C    0.212736  -0.334260  -0.055247   0.164355  -0.047070   0.092493
     2  C    0.753400  -0.068724   0.094865  -0.239676  -0.227745   0.294803
     3  C   -0.210060   0.096879   0.248176   0.790973  -2.371952  -0.207599
     4  C    0.006645  -0.087026  -0.240097  -1.014906   0.673997   0.047695
     5  C   -0.002681   0.136723  -0.076919   0.339499  -0.277342   0.007080
     6  N   -0.020876  -0.166362  -0.074802  -0.158754   0.066418  -0.021186
     7  C   -3.081847   0.032720  -0.009554  -0.137128   0.642888  -0.899070
     8  C    0.762652  -0.047293   0.003429  -0.005800   0.062062  -0.038019
     9  C   -0.014478  -0.010805   0.000475  -0.001038   0.023766  -0.307641
    10  C    0.068294   0.000606  -0.001253   0.002668   0.031455   0.002077
    11  N   -0.437355   0.063598   0.000558   0.010072  -0.213433   1.280508
    12  O    0.003173  -0.000959   0.000195   0.001900  -0.041971   0.025627
    13  H   -0.150973   0.002325  -0.000023  -0.000142   0.005236   0.045560
    14  H    0.065721   0.001144   0.000042   0.000251  -0.010520  -0.040029
    15  H   -0.050089  -0.001874  -0.000055  -0.000693   0.024408   0.040830
    16  H    0.272679  -0.005802  -0.000528   0.007119  -0.120662  -0.094421
    17  H   -0.314089   0.016278   0.000974  -0.001882   0.032139   0.085379
    18  H    0.115708  -0.002234  -0.000080   0.000064  -0.002635  -0.251541
    19  H    4.164669  -0.083221   0.003901  -0.008144  -0.014981  -0.219806
    20  H   -0.083221   2.127489  -0.001324   0.007442  -0.013175   0.068384
    21  H    0.003901  -0.001324   1.691214  -0.082956  -0.011966  -0.000862
    22  H   -0.008144   0.007442  -0.082956   2.135876  -0.213608   0.001576
    23  H   -0.014981  -0.013175  -0.011966  -0.213608   4.024723  -0.048135
    24  C   -0.219806   0.068384  -0.000862   0.001576  -0.048135   4.954555
    25  H    0.043183   0.002443   0.001989   0.004953   0.016835  -0.366592
    26  H   -0.000378  -0.000073  -0.000074   0.000321  -0.010096  -0.001842
    27  H    0.001337  -0.000300   0.000003   0.000635   0.004499   0.001384
    28  O   -0.000328  -0.000064  -0.000016   0.000320  -0.004132   0.005558
    29  H    0.000097   0.000021   0.000001  -0.000025   0.001150  -0.000158
    30  H   -0.000294  -0.000005  -0.000003   0.000028  -0.001629   0.000913
    31  H   -0.010970   0.007282   0.000331  -0.000627   0.008909   0.256201
    32  H    0.026758  -0.009842  -0.002160  -0.004255   0.007095   0.026259
    33  H    0.046624  -0.001201  -0.000093   0.001213  -0.015456   0.211738
              25         26         27         28         29         30
     1  C   -0.024879  -0.005068   0.005230  -0.001343   0.000032  -0.000178
     2  C   -0.220865   0.009585  -0.001189  -0.008785  -0.000088   0.001993
     3  C    0.104873   0.005121  -0.012234   0.004213   0.000235  -0.000627
     4  C   -0.107915   0.003722   0.002655   0.001833  -0.000089   0.000678
     5  C    0.032933  -0.000062  -0.001816  -0.000333   0.000053  -0.000078
     6  N   -0.007133   0.000300  -0.000070   0.000018  -0.000008   0.000011
     7  C    0.223094  -0.026263   0.034104  -0.010048   0.001808  -0.003016
     8  C   -0.088919   0.006361  -0.013531   0.033381  -0.000263  -0.002969
     9  C    0.248549  -0.001869   0.035350  -0.103736   0.003177   0.002337
    10  C   -0.180742   0.016399  -0.046446   0.049986  -0.005398   0.001004
    11  N   -0.069023  -0.008129   0.018346   0.030286   0.000725   0.004156
    12  O   -0.111597   0.345582   0.291085  -0.066206   0.001272   0.001778
    13  H   -0.045707   0.000705   0.000361  -0.000883   0.000281  -0.000451
    14  H    0.014778   0.000100   0.001460   0.001616  -0.000686   0.000898
    15  H   -0.053049  -0.001874  -0.003033  -0.016373   0.003653  -0.001065
    16  H    0.093731   0.002291   0.002825   0.010502  -0.001432   0.001000
    17  H   -0.023892  -0.000113  -0.000485  -0.000586   0.000239  -0.000259
    18  H    0.136068  -0.001552   0.008037   0.004913  -0.002069  -0.000080
    19  H    0.043183  -0.000378   0.001337  -0.000328   0.000097  -0.000294
    20  H    0.002443  -0.000073  -0.000300  -0.000064   0.000021  -0.000005
    21  H    0.001989  -0.000074   0.000003  -0.000016   0.000001  -0.000003
    22  H    0.004953   0.000321   0.000635   0.000320  -0.000025   0.000028
    23  H    0.016835  -0.010096   0.004499  -0.004132   0.001150  -0.001629
    24  C   -0.366592  -0.001842   0.001384   0.005558  -0.000158   0.000913
    25  H    1.181398  -0.005119   0.004862  -0.018042   0.002016  -0.002330
    26  H   -0.005119   0.566867  -0.140421   0.006218  -0.000219   0.000223
    27  H    0.004862  -0.140421   0.576423  -0.047728  -0.001627  -0.001588
    28  O   -0.018042   0.006218  -0.047728   7.958852   0.335663   0.346454
    29  H    0.002016  -0.000219  -0.001627   0.335663   0.520567  -0.083774
    30  H   -0.002330   0.000223  -0.001588   0.346454  -0.083774   0.508394
    31  H   -0.004584  -0.002605  -0.000180   0.000141   0.000122  -0.000121
    32  H   -0.032651   0.002546  -0.001601   0.000212  -0.000054   0.000015
    33  H   -0.061771   0.000836   0.000458   0.000185  -0.000068   0.000112
              31         32         33
     1  C    0.016405  -0.026864   0.026248
     2  C    0.003054   0.080371   0.037674
     3  C   -0.006032   0.080077  -0.063608
     4  C    0.001869   0.016988   0.012238
     5  C    0.006290  -0.010159  -0.006830
     6  N   -0.005092   0.011624   0.002147
     7  C   -0.031558   0.014623  -0.061901
     8  C   -0.072821   0.073445   0.057203
     9  C    0.061140  -0.050794  -0.001875
    10  C    0.035194  -0.092109   0.123674
    11  N   -0.197381   0.065277  -0.328512
    12  O    0.010065   0.003952  -0.004076
    13  H    0.017447   0.011226   0.011513
    14  H   -0.003906  -0.001094   0.003091
    15  H    0.010566  -0.003560  -0.003244
    16  H   -0.013699   0.002564   0.005230
    17  H    0.003903   0.002742   0.004172
    18  H   -0.028010   0.001998   0.031872
    19  H   -0.010970   0.026758   0.046624
    20  H    0.007282  -0.009842  -0.001201
    21  H    0.000331  -0.002160  -0.000093
    22  H   -0.000627  -0.004255   0.001213
    23  H    0.008909   0.007095  -0.015456
    24  C    0.256201   0.026259   0.211738
    25  H   -0.004584  -0.032651  -0.061771
    26  H   -0.002605   0.002546   0.000836
    27  H   -0.000180  -0.001601   0.000458
    28  O    0.000141   0.000212   0.000185
    29  H    0.000122  -0.000054  -0.000068
    30  H   -0.000121   0.000015   0.000112
    31  H    1.997390  -0.613036  -0.327605
    32  H   -0.613036   1.912953  -0.392344
    33  H   -0.327605  -0.392344   1.792603
 Mulliken charges:
               1
     1  C    0.228304
     2  C    1.484857
     3  C    1.294986
     4  C    0.449494
     5  C    0.097407
     6  N   -0.330832
     7  C    0.894875
     8  C    0.834977
     9  C    1.066701
    10  C    1.196304
    11  N   -1.099187
    12  O   -0.556015
    13  H   -0.491825
    14  H   -0.224652
    15  H   -0.334671
    16  H   -0.308623
    17  H   -0.473489
    18  H   -0.512169
    19  H   -0.927006
    20  H   -0.728790
    21  H   -0.488140
    22  H   -0.599629
    23  H   -0.979074
    24  C    1.048282
    25  H    0.313102
    26  H    0.238578
    27  H    0.283194
    28  O   -0.511746
    29  H    0.224843
    30  H    0.228475
    31  H   -0.118081
    32  H   -0.100202
    33  H   -0.100248
 Sum of Mulliken charges =   1.00000
 Mulliken charges with hydrogens summed into heavy atoms:
               1
     1  C   -0.500486
     2  C    1.484857
     3  C    0.315912
     4  C   -0.150135
     5  C   -0.390733
     6  N   -0.330832
     7  C   -0.032131
     8  C    0.052865
     9  C    0.507379
    10  C    0.192310
    11  N   -0.786085
    12  O   -0.034244
    24  C    0.729750
    28  O   -0.058428
 Electronic spatial extent (au):  <R**2>=           3472.1067
 Charge=              1.0000 electrons
 Dipole moment (field-independent basis, Debye):
    X=             -8.4717    Y=              1.0636    Z=              1.7760  Tot=              8.7210
 Quadrupole moment (field-independent basis, Debye-Ang):
   XX=            -50.8742   YY=            -56.4390   ZZ=            -73.4102
   XY=             -5.3469   XZ=              1.0897   YZ=             -0.5316
 Traceless Quadrupole moment (field-independent basis, Debye-Ang):
   XX=              9.3670   YY=              3.8021   ZZ=            -13.1691
   XY=             -5.3469   XZ=              1.0897   YZ=             -0.5316
 Octapole moment (field-independent basis, Debye-Ang**2):
  XXX=           -210.6947  YYY=             33.0174  ZZZ=             19.4025  XYY=            -47.4695
  XXY=            101.3915  XXZ=              4.3033  XZZ=            -31.4423  YZZ=              1.8453
  YYZ=              7.7993  XYZ=              6.1246
 Hexadecapole moment (field-independent basis, Debye-Ang**3):
 XXXX=          -2151.4994 YYYY=           -823.6903 ZZZZ=           -474.0965 XXXY=           -228.4270
 XXXZ=             27.8756 YYYX=           -129.0951 YYYZ=             -4.3027 ZZZX=             -7.1147
 ZZZY=             10.2918 XXYY=           -384.0124 XXZZ=           -552.3369 YYZZ=           -207.8347
 XXYZ=            -15.4726 YYXZ=             21.5533 ZZXY=            -43.7083
 N-N= 9.567771882659D+02 E-N=-3.416956903138D+03  KE= 6.480287364856D+02
 Calling FoFJK, ICntrl=      2127 FMM=F ISym2X=0 I1Cent= 0 IOpClX= 0 NMat=1 NMatS=1 NMatT=0.
 ***** Axes restored to original set *****
 -------------------------------------------------------------------
 Center     Atomic                   Forces (Hartrees/Bohr)
 Number     Number              X              Y              Z
 -------------------------------------------------------------------
      1        6          -0.000014769   -0.000005120   -0.000004029
      2        6           0.000001132   -0.000004009   -0.000001766
      3        6           0.000006007    0.000009814    0.000007816
      4        6          -0.000011605   -0.000002805   -0.000005952
      5        6           0.000005398   -0.000011498   -0.000008198
      6        7           0.000006396    0.000011168   -0.000000883
      7        6           0.000006971   -0.000009228    0.000023264
      8        6          -0.000024769   -0.000003588   -0.000021933
      9        6           0.000024900    0.000022017   -0.000003707
     10        6          -0.000019788   -0.000026181   -0.000000613
     11        7           0.000036733   -0.000002465    0.000008853
     12        8           0.000034973    0.000051985   -0.000038373
     13        1           0.000004369    0.000003883    0.000005121
     14        1          -0.000000702    0.000000808   -0.000000901
     15        1          -0.000006569   -0.000002135    0.000005192
     16        1           0.000001055    0.000001006    0.000005694
     17        1          -0.000003264   -0.000002066    0.000000465
     18        1           0.000005047    0.000006803   -0.000004358
     19        1           0.000001149    0.000000664    0.000004696
     20        1           0.000000811   -0.000000952    0.000001093
     21        1          -0.000000159    0.000001448   -0.000000873
     22        1           0.000000535    0.000000506    0.000001353
     23        1          -0.000003104    0.000001155   -0.000003638
     24        6          -0.000011097   -0.000000070   -0.000009121
     25        1          -0.000024319    0.000007396   -0.000010910
     26        1           0.000003775    0.000001115    0.000005127
     27        1          -0.000023996   -0.000078283    0.000062533
     28        8          -0.000013664    0.000024515   -0.000029061
     29        1           0.000002871    0.000001195   -0.000002293
     30        1           0.000007967   -0.000002535    0.000005077
     31        1           0.000003765    0.000003757    0.000005050
     32        1           0.000003794    0.000000173    0.000002275
     33        1           0.000000158    0.000001527    0.000003000
 -------------------------------------------------------------------
 Cartesian Forces:  Max     0.000078283 RMS     0.000016095

 GradGradGradGradGradGradGradGradGradGradGradGradGradGradGradGradGradGrad
 Berny optimization.
 FormGI is forming the generalized inverse of G from B-inverse, IUseBI=4.
 Internal  Forces:  Max     0.000099807 RMS     0.000009191
 Search for a local minimum.
 Step number   1 out of a maximum of  196
 All quantities printed in internal units (Hartrees-Bohrs-Radians)
 Mixed Optimization -- En-DIIS/RFO-DIIS
 Second derivative matrix not updated -- first step.
 ITU=  0
     Eigenvalues ---    0.00230   0.00230   0.00230   0.00230   0.00230
     Eigenvalues ---    0.00230   0.00315   0.00425   0.00542   0.00661
     Eigenvalues ---    0.00730   0.01547   0.02033   0.02130   0.02135
     Eigenvalues ---    0.02148   0.02163   0.02191   0.02205   0.02259
     Eigenvalues ---    0.02292   0.02483   0.03592   0.03781   0.03986
     Eigenvalues ---    0.04249   0.04503   0.04904   0.05184   0.05510
     Eigenvalues ---    0.05640   0.06030   0.06085   0.06093   0.06463
     Eigenvalues ---    0.06513   0.06918   0.07099   0.07154   0.07183
     Eigenvalues ---    0.09072   0.09936   0.11667   0.13733   0.15301
     Eigenvalues ---    0.15999   0.16000   0.16000   0.16000   0.16000
     Eigenvalues ---    0.16000   0.16000   0.16000   0.16000   0.16000
     Eigenvalues ---    0.16400   0.20042   0.22000   0.23199   0.23446
     Eigenvalues ---    0.24995   0.26271   0.27171   0.28820   0.29627
     Eigenvalues ---    0.31549   0.32091   0.33752   0.34111   0.34149
     Eigenvalues ---    0.34223   0.34313   0.34336   0.34343   0.34348
     Eigenvalues ---    0.34363   0.34381   0.34388   0.34675   0.34746
     Eigenvalues ---    0.34812   0.34965   0.40964   0.42257   0.44276
     Eigenvalues ---    0.46107   0.46862   0.51836   0.55054   0.55071
     Eigenvalues ---    0.55497   0.56530   0.57925
 RFO step:  Lambda=-4.98411726D-06 EMin= 2.30000000D-03
 Linear search not attempted -- first point.
 Iteration  1 RMS(Cart)=  0.01897195 RMS(Int)=  0.00020102
 Iteration  2 RMS(Cart)=  0.00034008 RMS(Int)=  0.00000457
 Iteration  3 RMS(Cart)=  0.00000005 RMS(Int)=  0.00000457
 Variable       Old X    -DE/DX   Delta X   Delta X   Delta X     New X
                                 (Linear)    (Quad)   (Total)
    R1        2.63973  -0.00001   0.00000  -0.00001  -0.00001   2.63971
    R2        2.51769   0.00001   0.00000   0.00001   0.00001   2.51770
    R3        2.06721   0.00000   0.00000   0.00000   0.00000   2.06721
    R4        2.64296   0.00001   0.00000   0.00001   0.00001   2.64298
    R5        2.83976  -0.00001   0.00000  -0.00002  -0.00002   2.83974
    R6        2.62346  -0.00001   0.00000  -0.00002  -0.00002   2.62344
    R7        2.06090   0.00000   0.00000   0.00001   0.00001   2.06091
    R8        2.64042   0.00001   0.00000   0.00001   0.00001   2.64044
    R9        2.05732   0.00000   0.00000   0.00000   0.00000   2.05732
   R10        2.51988  -0.00001   0.00000  -0.00001  -0.00001   2.51986
   R11        2.06206   0.00000   0.00000   0.00000   0.00000   2.06206
   R12        2.89291   0.00002   0.00000   0.00007   0.00007   2.89298
   R13        2.86161  -0.00001   0.00000  -0.00003  -0.00003   2.86157
   R14        2.07751  -0.00000   0.00000  -0.00000  -0.00000   2.07750
   R15        2.92500  -0.00002   0.00000  -0.00007  -0.00007   2.92494
   R16        2.07079   0.00000   0.00000   0.00000   0.00000   2.07080
   R17        2.06691  -0.00000   0.00000  -0.00000  -0.00000   2.06691
   R18        2.90477   0.00001   0.00000   0.00002   0.00002   2.90479
   R19        2.06767   0.00000   0.00000   0.00000   0.00000   2.06767
   R20        2.06805   0.00000   0.00000   0.00001   0.00001   2.06806
   R21        2.82497   0.00001   0.00000   0.00003   0.00003   2.82500
   R22        2.07143  -0.00000   0.00000  -0.00001  -0.00001   2.07142
   R23        2.06747  -0.00001   0.00000  -0.00002  -0.00002   2.06745
   R24        2.79280  -0.00000   0.00000  -0.00001  -0.00001   2.79279
   R25        1.96947   0.00000   0.00000   0.00001   0.00001   1.96947
   R26        3.27827  -0.00001   0.00000  -0.00012  -0.00012   3.27815
   R27        1.81393   0.00000   0.00000   0.00001   0.00001   1.81393
   R28        1.84754  -0.00001   0.00000  -0.00001  -0.00001   1.84753
   R29        2.06755   0.00000   0.00000   0.00000   0.00000   2.06755
   R30        2.06680   0.00000   0.00000   0.00001   0.00001   2.06681
   R31        2.06956  -0.00000   0.00000  -0.00000  -0.00000   2.06956
   R32        3.33805   0.00002   0.00000   0.00032   0.00032   3.33837
   R33        1.81769  -0.00000   0.00000  -0.00001  -0.00001   1.81768
   R34        1.81784  -0.00001   0.00000  -0.00001  -0.00001   1.81784
    A1        2.16507  -0.00000   0.00000  -0.00001  -0.00001   2.16506
    A2        2.09523   0.00000   0.00000   0.00001   0.00001   2.09524
    A3        2.02286   0.00000   0.00000  -0.00000  -0.00000   2.02286
    A4        2.05543   0.00000   0.00000   0.00002   0.00002   2.05545
    A5        2.08808  -0.00000   0.00000  -0.00002  -0.00002   2.08806
    A6        2.13965   0.00000   0.00000   0.00000   0.00000   2.13965
    A7        2.07194  -0.00000   0.00000  -0.00001  -0.00001   2.07193
    A8        2.11195   0.00000   0.00000   0.00000   0.00000   2.11195
    A9        2.09927   0.00000   0.00000   0.00001   0.00001   2.09928
   A10        2.07064   0.00000   0.00000   0.00000   0.00000   2.07065
   A11        2.11446   0.00000   0.00000   0.00000   0.00000   2.11447
   A12        2.09806  -0.00000   0.00000  -0.00001  -0.00001   2.09805
   A13        2.15283   0.00000   0.00000   0.00000   0.00000   2.15283
   A14        2.10161  -0.00000   0.00000  -0.00001  -0.00001   2.10159
   A15        2.02875   0.00000   0.00000   0.00001   0.00001   2.02876
   A16        2.05045  -0.00000   0.00000  -0.00000  -0.00000   2.05044
   A17        2.05901  -0.00001   0.00000  -0.00007  -0.00007   2.05894
   A18        1.96176   0.00000   0.00000   0.00002   0.00002   1.96178
   A19        1.90435   0.00000   0.00000   0.00001   0.00001   1.90436
   A20        1.77989   0.00000   0.00000  -0.00001  -0.00001   1.77987
   A21        1.91666   0.00000   0.00000   0.00005   0.00005   1.91670
   A22        1.82608  -0.00000   0.00000   0.00001   0.00001   1.82609
   A23        1.83947  -0.00000   0.00000  -0.00002  -0.00002   1.83945
   A24        1.91743  -0.00000   0.00000  -0.00006  -0.00006   1.91737
   A25        1.92301   0.00000   0.00000   0.00004   0.00004   1.92305
   A26        1.93525   0.00000   0.00000  -0.00001  -0.00001   1.93524
   A27        1.97429  -0.00000   0.00000   0.00000   0.00000   1.97429
   A28        1.87465   0.00000   0.00000   0.00003   0.00003   1.87468
   A29        1.83973   0.00001   0.00000   0.00002   0.00002   1.83976
   A30        1.95415  -0.00000   0.00000  -0.00003  -0.00003   1.95412
   A31        1.93526   0.00000   0.00000   0.00006   0.00006   1.93532
   A32        1.92077  -0.00000   0.00000   0.00001   0.00001   1.92078
   A33        1.93342  -0.00001   0.00000  -0.00004  -0.00004   1.93337
   A34        1.88118   0.00000   0.00000  -0.00002  -0.00002   1.88117
   A35        1.82631  -0.00000   0.00000  -0.00006  -0.00006   1.82625
   A36        1.96122   0.00001   0.00000   0.00010   0.00010   1.96133
   A37        2.00090  -0.00000   0.00000  -0.00006  -0.00006   2.00084
   A38        1.86919  -0.00000   0.00000   0.00000   0.00000   1.86920
   A39        1.89769   0.00000   0.00000  -0.00005  -0.00005   1.89765
   A40        1.90184   0.00000   0.00000   0.00006   0.00006   1.90190
   A41        1.81982  -0.00000   0.00000  -0.00005  -0.00005   1.81977
   A42        2.00627   0.00000   0.00000   0.00008   0.00008   2.00635
   A43        1.88295  -0.00000   0.00000  -0.00001  -0.00001   1.88294
   A44        2.00158  -0.00000   0.00000   0.00001   0.00001   2.00159
   A45        1.84677  -0.00000   0.00000  -0.00009  -0.00009   1.84668
   A46        1.89670   0.00000   0.00000   0.00005   0.00005   1.89675
   A47        2.24257  -0.00001   0.00000  -0.00058  -0.00060   2.24197
   A48        2.13460  -0.00001   0.00000  -0.00060  -0.00061   2.13399
   A49        1.86456   0.00001   0.00000  -0.00047  -0.00047   1.86409
   A50        1.90056   0.00000   0.00000   0.00002   0.00002   1.90058
   A51        1.90234   0.00000   0.00000   0.00001   0.00001   1.90235
   A52        1.90223   0.00000   0.00000   0.00002   0.00002   1.90225
   A53        1.92095  -0.00000   0.00000  -0.00004  -0.00004   1.92092
   A54        1.91914  -0.00000   0.00000   0.00000   0.00000   1.91914
   A55        1.91832  -0.00000   0.00000  -0.00002  -0.00002   1.91831
   A56        2.12232   0.00001   0.00000   0.00012   0.00013   2.12246
   A57        2.10019  -0.00001   0.00000   0.00000   0.00002   2.10021
   A58        1.83775   0.00001   0.00000   0.00012   0.00014   1.83789
   A59        3.31517  -0.00002   0.00000  -0.00505  -0.00506   3.31011
   A60        2.98859  -0.00001   0.00000  -0.00592  -0.00592   2.98268
   A61        2.95437   0.00001   0.00000   0.00303   0.00303   2.95740
   A62        3.09671   0.00010   0.00000   0.04051   0.04049   3.13720
    D1       -0.00110  -0.00000   0.00000  -0.00007  -0.00007  -0.00117
    D2       -3.13454  -0.00000   0.00000  -0.00017  -0.00017  -3.13471
    D3       -3.13577  -0.00000   0.00000  -0.00002  -0.00002  -3.13579
    D4        0.01398  -0.00000   0.00000  -0.00012  -0.00012   0.01386
    D5        0.00201   0.00000   0.00000   0.00004   0.00004   0.00205
    D6        3.13694  -0.00000   0.00000  -0.00001  -0.00001   3.13693
    D7       -0.00171   0.00000   0.00000   0.00003   0.00003  -0.00168
    D8       -3.13504  -0.00000   0.00000  -0.00004  -0.00004  -3.13508
    D9        3.13147   0.00000   0.00000   0.00014   0.00014   3.13160
   D10       -0.00186   0.00000   0.00000   0.00006   0.00006  -0.00180
   D11       -2.26553   0.00000   0.00000   0.00031   0.00031  -2.26522
   D12        1.95403   0.00000   0.00000   0.00037   0.00037   1.95440
   D13       -0.06334   0.00000   0.00000   0.00033   0.00033  -0.06301
   D14        0.88463   0.00000   0.00000   0.00021   0.00021   0.88484
   D15       -1.17900   0.00000   0.00000   0.00026   0.00026  -1.17873
   D16        3.08681   0.00000   0.00000   0.00023   0.00023   3.08704
   D17        0.00344   0.00000   0.00000   0.00003   0.00003   0.00347
   D18        3.13902   0.00000   0.00000   0.00005   0.00005   3.13907
   D19        3.13683   0.00000   0.00000   0.00011   0.00011   3.13694
   D20       -0.01078   0.00000   0.00000   0.00012   0.00012  -0.01065
   D21       -0.00263  -0.00000   0.00000  -0.00007  -0.00007  -0.00270
   D22        3.13894   0.00000   0.00000   0.00003   0.00003   3.13896
   D23       -3.13827  -0.00000   0.00000  -0.00009  -0.00009  -3.13835
[...]
 01193,0.52804944,-0.00002447,0.00007670,0.00000517,-0.00008163,-0.0000
 4486,0.00004229,0.00010447,-0.00007316,-0.00001373,0.00004971,-0.00002
 697,-0.00000683,-0.00000362,0.00000045,0.00000259,0.00009174,0.0000859
 4,0.00000729,-0.00011089,0.00011548,0.00001333,-0.00006350,-0.00045551
 ,0.00013095,-0.00048774,0.00026810,-0.00038040,-0.00042471,-0.00001581
 ,-0.00034193,0.00019414,0.00006808,0.00009866,0.00409143,0.00362877,0.
 00182567,0.00013673,-0.00004169,0.00007618,0.00028904,-0.00020979,0.00
 002657,0.00020529,-0.00101221,0.00022945,0.00005125,0.00005653,-0.0000
 0402,0.00011080,0.00004120,-0.00002060,-0.00010982,0.00029258,-0.00018
 202,-0.00003649,0.00001865,-0.00001143,-0.00002377,0.00002686,0.000008
 09,0.00000843,0.00000415,0.00000450,0.00003755,0.00001364,0.00000870,0
 .00000947,-0.00012199,0.00002058,-0.00000456,0.00013217,-0.00011522,-0
 .00001201,-0.00035455,-0.00013359,0.00107592,-0.00064497,0.00041277,-0
 .00328876,-0.00603508,0.00187619,-0.00997675,0.33172220,0.00003317,0.0
 0000838,0.00000001,-0.00010193,-0.00007000,0.00013650,0.00003723,-0.00
 015269,0.00018934,-0.00005051,0.00008652,0.00005353,0.00004230,-0.0000
 2957,-0.00003287,-0.00001736,0.00004819,0.00002084,0.00014676,0.000022
 82,-0.00061329,-0.00008682,0.00005636,0.00018692,-0.00050926,0.0002741
 8,0.00009759,0.00003413,-0.00034724,-0.00063512,-0.00012365,0.00078147
 ,0.00064369,-0.01088929,0.00239879,-0.00160335,0.00002509,0.00001314,0
 .00024859,0.00007174,-0.00003934,0.00008460,0.00027851,0.00030356,-0.0
 0080775,-0.00030805,0.00001097,-0.00011407,-0.00000479,0.00001828,0.00
 004043,0.00001854,-0.00024661,0.00015113,-0.00002875,-0.00001559,0.000
 14381,-0.00000846,0.00001667,-0.00001196,-0.00000824,0.00000661,-0.000
 00545,0.00002443,0.00001196,-0.00003148,0.00010226,0.00007577,-0.00030
 167,0.00009634,0.00007963,0.00010272,0.00091991,-0.00218710,-0.0007768
 8,0.00018740,0.00051845,0.00065880,0.00476343,0.00045786,-0.00764280,-
 0.16150558,-0.29729659,0.35088120,-0.00001651,0.00002424,0.00000096,0.
 00001456,-0.00000891,0.00000136,-0.00001599,0.00000386,-0.00001484,0.0
 0003961,-0.00001396,0.00000141,-0.00003012,0.00001639,0.00000162,0.000
 03801,-0.00001515,-0.00000034,-0.00004132,-0.00000617,0.00003101,0.000
 01555,-0.00000659,-0.00000885,0.00004394,-0.00002148,0.00003873,-0.000
 04944,-0.00000073,0.00001804,0.00004726,-0.00011081,-0.00001863,0.0005
 8611,-0.00027749,-0.00086469,0.00005720,-0.00002291,-0.00000882,0.0000
 2430,-0.00003353,-0.00001715,-0.00011382,0.00013903,0.00004940,-0.0000
 1713,-0.00000904,0.00000096,0.00001746,-0.00000352,-0.00000404,0.00001
 076,0.00010523,-0.00004688,0.00000630,-0.00000871,0.00000033,-0.000003
 94,-0.00000208,0.00000094,0.00000412,0.00000027,0.00000064,-0.00000784
 ,0.00000093,-0.00000002,-0.00000807,-0.00000933,0.00002331,-0.00002260
 ,0.00002746,-0.00005073,-0.00014444,0.00022811,0.00004831,-0.00045409,
 0.00011717,-0.00021504,-0.00198738,0.00008809,0.00213372,-0.46289898,-
 0.03598684,0.19525741,0.46473971,-0.00000016,-0.00001497,0.00000320,0.
 00002210,0.00000873,0.00000468,-0.00004479,0.00004671,-0.00000545,-0.0
 0000313,-0.00000322,-0.00000605,-0.00000356,0.00000578,0.00000205,-0.0
 0001698,-0.00003130,-0.00000557,-0.00000324,-0.00004157,-0.00005184,-0
 .00009069,0.00016482,-0.00000961,-0.00003705,-0.00036267,-0.00007455,0
 .00032993,0.00004670,-0.00008743,-0.00010038,-0.00011099,0.00003649,0.
 00060761,-0.00030656,0.00071540,-0.00005702,-0.00000233,0.00003814,0.0
 0007638,-0.00009301,-0.00003291,0.00044979,0.00041297,-0.00020204,-0.0
 0011432,-0.00001154,0.00004727,-0.00002697,-0.00003377,0.00001044,0.00
 010928,-0.00008632,0.00016694,0.00002007,-0.00001212,0.00000694,0.0000
 0724,-0.00000979,-0.00000270,-0.00000066,-0.00000170,-0.00000007,-0.00
 000962,-0.00000571,0.00000043,-0.00001735,0.00000639,0.00001170,-0.000
 00356,-0.00003750,0.00000103,-0.00010028,0.00035557,0.00003305,-0.0000
 2448,0.00002997,0.00005795,-0.00116275,0.00013099,-0.00172275,0.005287
 78,-0.02868495,0.02393809,0.02921047,0.03139211,0.00000645,-0.00000810
 ,-0.00000613,-0.00000105,0.00001130,-0.00002920,0.00001681,0.00000578,
 -0.00001764,-0.00001799,0.00000855,-0.00000185,0.00000782,-0.00000601,
 0.00000042,-0.00001987,-0.00000115,-0.00000414,-0.00000265,-0.00000793
 ,0.00007987,-0.00002775,0.00002119,-0.00004232,0.00003564,-0.00010252,
 0.00004059,-0.00009502,-0.00000712,0.00016919,-0.00002931,0.00006858,-
 0.00008171,-0.00183741,0.00101761,-0.00280248,0.00000900,0.00000775,-0
 .00004259,0.00002353,-0.00002157,-0.00001757,0.00017647,0.00004995,-0.
 00001072,0.00001264,0.00001399,-0.00000919,-0.00000189,0.00001040,-0.0
 0000400,-0.00001544,0.00002990,0.00001003,-0.00000224,0.00000771,-0.00
 000731,0.00000182,-0.00000099,0.00000453,-0.00000308,-0.00000012,0.000
 00176,-0.00000247,-0.00000277,0.00000595,0.00000238,0.00000089,0.00001
 937,-0.00000641,-0.00004442,0.00007661,0.00000686,-0.00009235,0.000010
 19,-0.00058400,0.00005687,0.00003897,0.00160405,-0.00163745,0.00501579
 ,0.16001401,0.03862978,-0.09902203,-0.19100048,-0.03822322,0.10794532,
 -0.00001574,0.00000459,-0.00000362,0.00004112,-0.00000772,0.00002703,-
 0.00012227,0.00003626,0.00005256,0.00005585,-0.00002821,0.00001244,-0.
 00004587,0.00002930,-0.00000753,0.00002805,-0.00004786,0.00000128,0.00
 001781,-0.00006570,-0.00013800,0.00006490,0.00027384,-0.00000265,0.000
 00536,0.00007858,0.00007150,0.00006708,-0.00003886,-0.00002776,-0.0000
 1753,0.00003451,0.00007318,-0.00300639,-0.00071344,-0.00075732,-0.0000
 0590,0.00000203,0.00002318,-0.00002393,-0.00001602,0.00001448,0.000092
 01,0.00015410,-0.00018991,-0.00018464,-0.00004045,-0.00001055,-0.00001
 610,-0.00004463,0.00001426,0.00000686,-0.00006675,0.00006107,0.0000259
 0,-0.00002959,0.00005700,0.00000475,-0.00000852,-0.00000306,0.00000517
 ,-0.00000117,-0.00000155,-0.00002507,-0.00000230,-0.00001319,-0.000018
 55,0.00004929,-0.00008965,-0.00001856,0.00001131,-0.00000220,0.0000884
 4,-0.00009719,-0.00007064,-0.00026648,0.00021132,-0.00021775,0.0050239
 9,0.00273889,0.00020204,-0.04968924,0.04418224,-0.02841899,0.00016120,
 -0.03431716,0.03174069,0.04776215,0.00001739,-0.00003029,-0.00000360,0
 .00003986,0.00001208,-0.00002116,-0.00001912,0.00001111,0.00000028,-0.
 00003188,0.00003559,0.00000800,0.00000480,-0.00000613,-0.00000017,-0.0
 0004605,-0.00003756,-0.00000371,0.00009695,0.00004570,0.00004429,0.000
 00638,-0.00006299,-0.00003669,0.00012280,-0.00012416,-0.00017983,-0.00
 003865,0.00011435,0.00011279,-0.00009154,0.00003977,-0.00006436,-0.001
 62517,0.00019126,-0.00045110,-0.00003008,0.00001879,-0.00005308,0.0000
 1132,-0.00001926,0.00000029,-0.00002809,-0.00030338,0.00039546,0.00014
 715,0.00004501,0.00000573,-0.00000179,0.00002284,-0.00000307,-0.000021
 76,0.00001869,-0.00003099,-0.00001115,0.00000628,-0.00002525,0.0000090
 8,-0.00001165,-0.00000252,-0.00000695,-0.00000049,-0.00000240,-0.00002
 004,-0.00000578,-0.00000770,0.00002558,0.00006440,0.00000216,0.0000142
 0,-0.00004557,0.00004688,0.00001719,-0.00002611,0.00001946,0.00012564,
 0.00021520,-0.00008114,0.00217954,-0.00043093,0.00054275,0.00486972,-0
 .29880043,0.27134606,0.00656707,-0.00276573,0.00019432,-0.01227852,0.3
 0181865,-0.00000467,-0.00000274,0.00000084,0.00003574,0.00000613,-0.00
 002686,-0.00002266,0.00002321,-0.00004051,0.00001995,-0.00000782,-0.00
 001691,-0.00000944,0.00000883,0.00000753,0.00000679,-0.00001292,-0.000
 01075,-0.00000870,0.00004419,0.00014858,-0.00002111,-0.00010868,-0.000
 05062,0.00015255,-0.00015194,-0.00016188,-0.00006866,0.00008629,0.0000
 8212,0.00003824,-0.00012334,-0.00015126,0.00010177,-0.00086772,0.00023
 982,0.00000778,-0.00000772,-0.00004025,0.00004222,-0.00006839,-0.00000
 708,-0.00017570,-0.00008235,0.00042438,0.00009249,0.00003467,0.0001095
 5,0.00004432,-0.00003649,-0.00001195,-0.00001592,0.00007800,-0.0000650
 9,-0.00000472,0.00000733,-0.00003993,0.00000117,-0.00000491,0.00000499
 ,0.00000154,-0.00000124,0.00000382,-0.00001037,-0.00000285,0.00001606,
 -0.00004098,0.00001144,0.00007202,-0.00000505,-0.00001195,-0.00002608,
 -0.00022240,0.00037119,0.00012439,-0.00022176,0.00021404,-0.00021902,-
 0.00017284,0.00191655,-0.00147756,0.00821324,0.25507538,-0.24208268,-0
 .00535233,0.01533610,-0.01129026,-0.00239226,-0.27173789,0.25448940,0.
 00001360,-0.00003266,0.00006512,0.00001026,-0.00015995,0.00019931,0.00
 012007,0.00032126,0.00010878,-0.00017379,-0.00001150,-0.00006472,0.000
 12149,-0.00013293,-0.00000160,0.00014386,0.00011424,0.00009635,-0.0026
 0563,0.00117391,-0.00128507,0.00050083,-0.00000839,-0.00110905,0.00019
 930,0.00001687,0.00012053,0.00154739,0.00011918,-0.00063372,0.01139759
 ,0.00053384,-0.01877619,-0.00009913,-0.00004008,-0.00010470,-0.0000979
 3,-0.00006283,0.00014364,0.00000092,-0.00001242,0.00002038,-0.00002140
 ,-0.00001002,0.00002229,-0.00000800,0.00002975,-0.00002025,-0.00017083
 ,0.00017028,-0.00024321,-0.00005092,0.00018426,0.00008762,-0.00004645,
 -0.00013689,-0.00010428,0.00003181,-0.00005274,-0.00008584,-0.00000103
 ,-0.00001043,-0.00001340,-0.00000128,-0.00000749,0.00001071,-0.0000016
 8,-0.00002812,0.00001046,-0.17622582,0.00263632,0.14596264,0.00052142,
 -0.00044619,0.00066783,0.00006279,-0.00007899,0.00008327,0.00004798,0.
 00002652,0.00000761,-0.00002267,-0.00002028,-0.00001059,-0.00000046,0.
 00001890,-0.00000431,0.00000011,0.00000186,-0.00000030,0.18153553,0.00
 011024,-0.00030938,-0.00007840,0.00025267,0.00023853,0.00009910,-0.000
 01781,0.00013427,-0.00000039,-0.00001321,0.00000484,-0.00001723,-0.000
 02107,0.00001922,0.00001713,-0.00004153,0.00003366,-0.00001560,0.00232
 216,-0.00132943,0.00055234,-0.00051085,0.00053856,0.00094738,-0.000159
 09,-0.00020990,-0.00008766,-0.00055336,0.00034978,-0.00048840,-0.01170
 848,-0.00212656,0.01609517,-0.00011689,0.00019265,-0.00050544,0.000337
 29,-0.00012713,-0.00013138,0.00002300,0.00001478,-0.00003331,0.0000318
 3,0.00000798,0.00003652,-0.00007356,-0.00000714,-0.00006542,0.00024858
 ,-0.00015949,0.00020184,0.00012693,0.00023808,-0.00007723,-0.00014915,
 0.00031474,0.00036332,-0.00005521,0.00004376,0.00005160,0.00000022,0.,
 0.00000148,-0.00001249,-0.00000941,0.00000354,-0.00001308,0.00000708,0
 .00003514,0.00648389,-0.04947777,-0.00662280,-0.00086879,0.00036990,0.
 00056280,0.00004436,-0.00022946,0.00013228,0.00020906,0.00000845,0.000
 14188,-0.00008611,-0.00002171,-0.00009842,0.00001448,0.00001541,0.0000
 1118,-0.00000718,0.00000635,0.00002128,-0.00525326,0.04811878,-0.00003
 610,0.00000676,0.00010568,-0.00035326,-0.00032555,0.00016098,0.0001225
 6,0.00012227,0.00010433,-0.00006228,0.00001098,0.00001384,0.00006952,-
 0.00006162,-0.00003823,0.00013059,0.00008135,0.00008569,-0.00462011,0.
 00211420,-0.00065410,0.00103612,-0.00008513,-0.00112663,0.00009149,0.0
 0020789,-0.00007778,0.00164815,-0.00001773,0.00080878,0.01746243,0.001
 32088,-0.02634661,-0.00014878,-0.00001861,0.00024447,-0.00006381,-0.00
 021461,-0.00013301,-0.00003254,-0.00003577,0.00008046,-0.00005033,-0.0
 0003883,0.00002706,-0.00008808,0.00003229,-0.00006644,-0.00036111,0.00
 018316,-0.00027412,-0.00068491,0.00011959,-0.00012703,-0.00013638,0.00
 003078,0.00024312,-0.00001750,-0.00001558,-0.00004501,0.00000103,0.000
 00152,-0.00000465,0.00000728,0.00000848,-0.00000352,-0.00000110,-0.000
 01894,-0.00002329,0.13496194,-0.00246751,-0.20318988,0.00059163,-0.000
 46325,-0.00001437,-0.00001668,0.00012216,-0.00000448,-0.00003243,0.000
 06204,-0.00004960,0.00000522,-0.00003126,0.00005051,-0.00000831,0.0000
 1925,-0.00001321,0.00001303,0.00000078,-0.00001292,-0.14733972,-0.0014
 6477,0.22531110,-0.00003325,-0.00011116,0.00045592,0.00027147,-0.00035
 042,0.00090435,0.00003123,0.00005496,0.00020425,0.00006454,0.00006114,
 0.00001117,-0.00009688,-0.00007688,-0.00003422,-0.00010169,0.00001576,
 -0.00008872,-0.00019029,-0.00029273,0.00075744,-0.00019494,-0.00007032
 ,0.00009345,-0.00042384,-0.00056963,-0.00000951,0.00104193,0.00206526,
 -0.00149584,-0.01288963,-0.00535431,-0.00490061,0.00020354,0.00006193,
 0.00031141,0.00001840,-0.00002455,0.00004038,-0.00005300,0.00012823,-0
 .00020650,-0.00002465,0.00000238,-0.00006585,0.00002706,0.00000604,-0.
 00000893,0.00005730,0.00000559,-0.00000607,0.00016418,-0.00007262,0.00
 013592,0.00003150,0.00005758,-0.00010923,0.00000598,0.00003898,-0.0000
 1781,0.00000244,0.00000988,-0.00000101,-0.00000226,0.00000415,-0.00000
 942,-0.00002794,0.00004743,-0.00005856,-0.23947623,-0.11631808,-0.0592
 5815,-0.00032195,-0.00041839,-0.00036511,-0.00012849,0.00015495,-0.000
 09618,-0.00013678,-0.00003249,-0.00009891,0.00005962,0.00003884,0.0000
 6803,-0.00000057,-0.00001891,-0.00000665,0.00000280,-0.00000920,-0.000
 01217,-0.01319248,-0.00974442,-0.00598339,0.25667878,-0.00043259,0.000
 04780,0.00022893,0.00008525,-0.00020369,0.00074141,0.00025857,0.000153
 31,0.00007263,-0.00031206,-0.00013447,-0.00015482,0.00005344,-0.000212
 71,-0.00007269,0.00023102,0.00015702,0.00016505,-0.00024292,0.00030765
 ,-0.00050008,0.00008940,-0.00002082,-0.00018049,0.00066854,0.00082928,
 0.00046564,-0.00022812,-0.00216185,0.00247135,0.01909709,0.00889530,0.
 00689163,-0.00016839,-0.00006209,-0.00017494,0.00011908,0.00047521,0.0
 0019821,0.00006720,-0.00016731,0.00027958,0.00003257,0.00002349,-0.000
 00633,-0.00001009,-0.00001467,0.00002010,-0.00002124,0.00000087,-0.000
 01082,-0.00011932,-0.00001878,-0.00003844,-0.00012161,-0.00010945,0.00
 009740,0.00004084,-0.00014138,-0.00017817,0.00000076,-0.00001112,-0.00
 000187,-0.00000377,-0.00000197,0.00001863,0.00002398,-0.00000621,0.000
 03736,-0.12377401,-0.12592536,-0.03808284,0.00036210,0.00092519,-0.000
 36640,0.00008617,-0.00005756,0.00003725,0.00005560,0.00004520,0.000071
 91,-0.00003635,-0.00001890,-0.00004767,-0.00000013,0.00000660,0.000006
 74,0.00000074,0.00000572,0.00000653,0.00286403,0.00074866,0.00018894,0
 .12569220,0.12775483,0.00055228,-0.00002278,-0.00013547,-0.00002558,0.
 00004517,-0.00056906,0.00014513,0.00066502,0.00007030,-0.00025028,0.00
 000299,-0.00002918,0.00014802,-0.00014730,-0.00004924,0.00004842,0.000
 05715,0.00001925,-0.00114040,-0.00089986,0.00093444,-0.00025791,-0.000
 02931,0.00016424,-0.00130138,-0.00051578,-0.00026169,0.00076152,0.0035
 5278,-0.00314255,-0.02712860,-0.01456399,-0.01169863,-0.00005044,0.000
 21102,-0.00002204,0.00022780,0.00013702,-0.00007864,-0.00008186,0.0001
 9418,-0.00029183,-0.00000139,0.00004014,-0.00023581,0.00003146,0.00002
 755,-0.00001249,0.00004528,-0.00000678,0.00000369,-0.00043794,0.000074
 08,-0.00006500,0.00006963,-0.00004567,-0.00018478,0.00001929,-0.000046
 61,-0.00005033,-0.00001199,-0.00001957,0.00000255,-0.00001675,-0.00002
 834,0.00001429,-0.00000949,-0.00006691,0.00002165,-0.05126069,-0.03090
 383,-0.06453131,0.00031181,-0.00071654,0.00064826,0.00000374,-0.000013
 98,0.00005683,0.00000937,-0.00001394,-0.00000387,-0.00000450,0.0000413
 0,-0.00000145,0.00000552,-0.00000722,-0.00000668,-0.00001278,-0.000012
 82,0.00000667,0.01924682,0.01275602,0.00853229,0.06638607,0.03381232,0
 .07257785,0.00019823,-0.00025361,-0.00011332,-0.00009565,0.00010727,0.
 00001716,-0.00012513,-0.00009836,0.00003884,0.00019691,0.00007857,0.00
 004746,-0.00007352,0.00011554,0.00001928,-0.00005891,0.00000772,-0.000
 08449,0.00020598,-0.00100511,0.00068285,0.00006836,-0.00012595,0.00014
 280,0.00007262,-0.00032958,-0.00006794,0.00070849,0.00228378,0.0009685
 5,-0.00622779,0.01659745,0.00160254,-0.00011190,0.00040707,0.00019079,
 -0.00046473,-0.00050288,-0.00056770,0.00000694,-0.00000315,-0.00005249
 ,-0.00000599,-0.00008951,0.00012202,-0.00003552,-0.00003774,0.00006253
 ,-0.00003057,-0.00001778,-0.00000493,-0.00005232,-0.00008307,-0.000057
 86,0.00037282,-0.00013521,-0.00009576,-0.00006271,0.00011001,0.0001760
 8,0.00000257,0.00001240,0.00000316,-0.00000162,0.00000723,-0.00000617,
 -0.00001549,0.00001275,-0.00001671,-0.06211582,0.05529045,0.01463712,-
 0.00055369,-0.00025201,-0.00263756,-0.00012594,0.00004438,-0.00002616,
 0.00007603,0.00001521,0.00007316,-0.00004481,-0.00002123,-0.00003439,0
 .00000657,0.00001349,-0.00000011,0.00000271,0.00000346,0.00000426,-0.0
 0353547,0.01920080,0.00389584,0.00863412,-0.02435798,-0.00602019,0.063
 18524,0.00015810,-0.00031426,-0.00003809,-0.00015832,-0.00003674,0.000
 12170,0.00000495,-0.00002558,0.00002300,0.00011136,0.00009043,0.000034
 73,-0.00006808,0.00008078,0.00000251,-0.00003724,0.00002322,-0.0000729
 7,0.00039586,0.00009550,-0.00154422,-0.00010370,0.00043004,0.00012480,
 -0.00011972,0.00034214,-0.00003472,-0.00113898,0.00067930,-0.00077047,
 0.00484151,-0.01750427,-0.00096191,0.00025138,-0.00050051,-0.00015521,
 0.00058123,0.00051657,0.00021551,0.00001649,-0.00003666,0.00006057,-0.
 00002525,0.00003585,-0.00010376,-0.00013872,0.00007074,-0.00013598,0.0
 0004206,-0.00001026,0.00005282,-0.00000542,0.00005390,-0.00000257,-0.0
 0039180,0.00022969,0.00087337,-0.00007676,0.00014203,0.00009067,-0.000
 00077,0.00001371,0.00001045,0.00000712,0.00000995,-0.00000532,0.000000
 39,0.00003782,-0.00001962,0.05927595,-0.29300412,-0.06502228,0.0002425
 8,0.00171474,0.00266564,0.00006568,-0.00003593,0.00003063,-0.00010751,
 -0.00004674,-0.00012248,0.00006044,0.00001109,0.00005706,-0.00000540,-
 0.00000702,0.00000324,0.00000426,-0.00000129,-0.00001221,-0.00170608,0
 .00260192,0.00062586,0.00501881,-0.01110782,-0.00355551,-0.06699443,0.
 31545180,0.00003908,0.00006778,0.00003135,0.00008486,-0.00030328,-0.00
 012779,-0.00006702,0.00008524,0.00003212,-0.00001878,-0.00003157,0.000
 01299,0.00004623,-0.00002873,-0.00000267,-0.00002756,-0.00001207,0.000
 00572,-0.00119570,0.00182142,0.00226479,0.00000300,-0.00021003,-0.0000
 5630,0.00014551,-0.00012575,0.00013015,0.00153830,0.00154328,0.0010543
 9,-0.01054340,0.03434244,0.00215979,-0.00017534,0.00071217,0.00062772,
 -0.00013686,-0.00057944,0.00010389,0.00001683,-0.00000320,-0.00000404,
 0.00005801,-0.00001461,0.00003539,0.00004871,-0.00011171,0.00006159,-0
 .00000713,-0.00005660,-0.00002594,-0.00013219,-0.00021505,-0.00009429,
 0.00019241,-0.00052671,-0.00048659,0.00005275,-0.00001602,-0.00001840,
 -0.00000034,-0.00000605,-0.00000436,-0.00000557,-0.00000022,-0.0000061
 2,-0.00001246,-0.00003878,-0.00000313,0.01851326,-0.07609123,-0.068976
 14,-0.00171042,0.00029044,-0.00519558,-0.00018961,0.00026329,-0.000126
 66,-0.00000490,0.00001711,0.00002757,-0.00001420,0.00000217,-0.0000073
 6,-0.00000254,0.00000228,-0.00000958,-0.00000435,-0.00000178,0.0000014
 5,0.00294359,-0.02234353,-0.00356343,0.00346444,-0.00599604,-0.0016822
 7,-0.01289864,0.06756479,0.07384174\\0.00000718,0.00000047,0.00000616,
 -0.00000534,0.00000320,0.00000291,-0.00000247,-0.00000648,0.00000022,0
 .00000392,0.00000068,0.00000298,-0.00000272,0.00000732,-0.00000169,-0.
 00000408,-0.00000666,0.00000140,-0.00000305,0.00000103,-0.00001182,0.0
 0000311,-0.00000277,0.00000623,-0.00000336,0.00000661,0.00000033,0.000
 01202,-0.00000161,0.00000266,-0.00001128,0.00000653,-0.00000224,0.0000
 0012,-0.00002646,-0.00000361,-0.00000092,-0.00000126,0.00000188,0.0000
 0472,0.00000068,-0.00000219,0.00000050,0.00000654,-0.00000581,-0.00000
 351,0.00000109,0.00000022,-0.00000081,0.00000211,-0.00000286,0.0000031
 6,0.00000204,-0.00000134,-0.00000071,-0.00000051,-0.00000109,-0.000000
 15,-0.00000014,-0.00000171,-0.00000005,-0.00000079,0.00000409,-0.00000
 061,-0.00000005,0.00000129,-0.00000153,0.00000133,0.00000188,0.0000041
 7,-0.00000410,0.00000648,0.00000802,-0.00000723,0.00000059,-0.00000239
 ,0.00000605,-0.00000680,-0.00002141,0.00001267,0.00000908,0.00002977,0
 .00001059,-0.00001360,0.00000432,-0.00000343,0.00001141,-0.00001366,-0
 .00000490,-0.00000464,-0.00000145,-0.00000236,-0.00000105,-0.00000191,
 -0.00000019,0.00000096,0.00000038,-0.00000002,-0.00000029\\\@


 LAW OF COMPENSATION:
      NO CALCULATION IS EVER A COMPLETE FAILURE; IT 
      CAN ALWAYS SERVE AS A BAD EXAMPLE.

                                           -- ANON
 Job cpu time:       0 days 17 hours 54 minutes 19.0 seconds.
 Elapsed time:       0 days  0 hours 38 minutes 25.1 seconds.
 File lengths (MBytes):  RWF=    908 Int=      0 D2E=      0 Chk=     28 Scr=      8
 Normal termination of Gaussian 16 at Sun Nov 14 16:55:40 2021.
