 Entering Gaussian System, Link 0=g16
 Input=NicPySa2h1wB97XDaVDZ130K.gjf
 Output=NicPySa2h1wB97XDaVDZ130K.log
 Initial command:
 /sw/contrib/gaussian/g16/A03/g16/l1.exe "/gscratch/scrubbed/gds001/Gau-20712.inp" -scrdir="/gscratch/scrubbed/gds001/"
 Entering Link 1 = /sw/contrib/gaussian/g16/A03/g16/l1.exe PID=     20713.
  
 Copyright (c) 1988,1990,1992,1993,1995,1998,2003,2009,2016,
            Gaussian, Inc.  All Rights Reserved.
  
 This is part of the Gaussian(R) 16 program.  It is based on
 the Gaussian(R) 09 system (copyright 2009, Gaussian, Inc.),
 the Gaussian(R) 03 system (copyright 2003, Gaussian, Inc.),
 the Gaussian(R) 98 system (copyright 1998, Gaussian, Inc.),
 the Gaussian(R) 94 system (copyright 1995, Gaussian, Inc.),
 the Gaussian 92(TM) system (copyright 1992, Gaussian, Inc.),
 the Gaussian 90(TM) system (copyright 1990, Gaussian, Inc.),
 the Gaussian 88(TM) system (copyright 1988, Gaussian, Inc.),
 the Gaussian 86(TM) system (copyright 1986, Carnegie Mellon
 University), and the Gaussian 82(TM) system (copyright 1983,
 Carnegie Mellon University). Gaussian is a federally registered
 trademark of Gaussian, Inc.
  
 This software contains proprietary and confidential information,
 including trade secrets, belonging to Gaussian, Inc.
  
 This software is provided under written license and may be
 used, copied, transmitted, or stored only in accord with that
 written license.
  
 The following legend is applicable only to US Government
 contracts under FAR:
  
                    RESTRICTED RIGHTS LEGEND
  
 Use, reproduction and disclosure by the US Government is
 subject to restrictions as set forth in subparagraphs (a)
 and (c) of the Commercial Computer Software - Restricted
 Rights clause in FAR 52.227-19.
  
 Gaussian, Inc.
 340 Quinnipiac St., Bldg. 40, Wallingford CT 06492
  
  
 ---------------------------------------------------------------
 Warning -- This program may not be used in any manner that
 competes with the business of Gaussian, Inc. or will provide
 assistance to any competitor of Gaussian, Inc.  The licensee
 of this program is prohibited from giving any competitor of
 Gaussian, Inc. access to this program.  By using this program,
 the user acknowledges that Gaussian, Inc. is engaged in the
 business of creating and licensing software in the field of
 computational chemistry and represents and warrants to the
 licensee that it is not a competitor of Gaussian, Inc. and that
 it will not use this program in any manner prohibited above.
 ---------------------------------------------------------------
  

 Cite this work as:
 Gaussian 16, Revision A.03,
 M. J. Frisch, G. W. Trucks, H. B. Schlegel, G. E. Scuseria, 
 M. A. Robb, J. R. Cheeseman, G. Scalmani, V. Barone, 
 G. A. Petersson, H. Nakatsuji, X. Li, M. Caricato, A. V. Marenich, 
 J. Bloino, B. G. Janesko, R. Gomperts, B. Mennucci, H. P. Hratchian, 
 J. V. Ortiz, A. F. Izmaylov, J. L. Sonnenberg, D. Williams-Young, 
 F. Ding, F. Lipparini, F. Egidi, J. Goings, B. Peng, A. Petrone, 
 T. Henderson, D. Ranasinghe, V. G. Zakrzewski, J. Gao, N. Rega, 
 G. Zheng, W. Liang, M. Hada, M. Ehara, K. Toyota, R. Fukuda, 
 J. Hasegawa, M. Ishida, T. Nakajima, Y. Honda, O. Kitao, H. Nakai, 
 T. Vreven, K. Throssell, J. A. Montgomery, Jr., J. E. Peralta, 
 F. Ogliaro, M. J. Bearpark, J. J. Heyd, E. N. Brothers, K. N. Kudin, 
 V. N. Staroverov, T. A. Keith, R. Kobayashi, J. Normand, 
 K. Raghavachari, A. P. Rendell, J. C. Burant, S. S. Iyengar, 
 J. Tomasi, M. Cossi, J. M. Millam, M. Klene, C. Adamo, R. Cammi, 
 J. W. Ochterski, R. L. Martin, K. Morokuma, O. Farkas, 
 J. B. Foresman, and D. J. Fox, Gaussian, Inc., Wallingford CT, 2016.
 
 ******************************************
 Gaussian 16:  ES64L-G16RevA.03 25-Dec-2016
                26-Aug-2020 
 ******************************************
 %nprocshared=28
 Will use up to   28 processors via shared memory.
 %mem=41GB
 %chk=NicPySa2h1.chk
 -----------------------------------------
 # wB97XD/aug-cc-pVDZ Temperature=130 Freq
 -----------------------------------------
 1/10=4,30=1,38=1,112=130000/1,3;
 2/12=2,17=6,18=5,40=1/2;
 3/5=16,7=10,11=2,25=1,30=1,71=2,74=-58,140=1/1,2,3;
 4//1;
 5/5=2,38=5,98=1/2;
 8/6=4,10=90,11=11/1;
 11/6=1,8=1,9=11,15=111,16=1/1,2,10;
 10/6=1/2;
 6/7=2,8=2,9=2,10=2,28=1/1;
 7/8=1,10=1,25=1/1,2,3,16;
 1/10=4,30=1/3;
 99//99;
 ---------------------------
 p-Py Nicotine, S anti, 2H2O
 ---------------------------
 Symbolic Z-matrix:
 Charge =  1 Multiplicity = 1
 N                     2.12341  -0.88037   0.69754 
 C                     2.08979   0.36207  -0.06413 
 C                     2.52727  -0.02431  -1.50874 
 C                     2.69594  -1.5512   -1.45952 
 C                     3.02425  -1.79939   0.0058 
 C                     0.71506   0.99782  -0.02287 
 C                    -0.40372   0.24594   0.30495 
 N                    -1.62611   0.80127   0.30217 
 C                    -1.83998   2.08856  -0.00983 
 C                    -0.76673   2.89565  -0.3417 
 C                     0.51332   2.34448  -0.34339 
 O                    -3.77331  -0.67007   0.93798 
 H                     2.83654  -2.82961   0.33186 
 H                     3.47706  -1.90672  -2.13934 
 H                     1.75762  -2.05657  -1.7218 
 H                     3.48281   0.46101  -1.73822 
 H                     1.80451   0.29947  -2.2663 
 H                     4.08703  -1.56285   0.21306 
 H                     2.80253   1.10402   0.34462 
 H                    -0.32405  -0.8037    0.57804 
 H                    -2.87093   2.432     0.02163 
 H                    -0.93401   3.94109  -0.5899 
 H                     1.36996   2.97048  -0.59633 
 C                     2.40747  -0.70213   2.10931 
 H                    -2.45053   0.20672   0.5583 
 H                    -4.12939  -0.82549   1.81542 
 H                    -4.31521  -1.19337   0.31229 
 O                    -5.22706  -2.08031  -0.86807 
 H                    -6.09484  -1.81616  -1.18587 
 H                    -5.18103  -3.0329   -0.98714 
 H                     1.65198  -0.05113   2.57052 
 H                     3.40368  -0.25169   2.28469 
 H                     2.37207  -1.6728    2.61803 
 

 GradGradGradGradGradGradGradGradGradGradGradGradGradGradGradGradGradGrad
 Berny optimization.
 Initialization pass.
 Trust Radius=3.00D-01 FncErr=1.00D-07 GrdErr=1.00D-07 EigMax=2.50D+02 EigMin=1.00D-04
 Number of steps in this run=      2 maximum allowed number of steps=      2.
 GradGradGradGradGradGradGradGradGradGradGradGradGradGradGradGradGradGrad

                          Input orientation:                          
 ---------------------------------------------------------------------
 Center     Atomic      Atomic             Coordinates (Angstroms)
 Number     Number       Type             X           Y           Z
 ---------------------------------------------------------------------
      1          7           0        2.123410   -0.880368    0.697537
      2          6           0        2.089786    0.362073   -0.064132
      3          6           0        2.527268   -0.024309   -1.508743
      4          6           0        2.695939   -1.551203   -1.459522
      5          6           0        3.024254   -1.799388    0.005802
      6          6           0        0.715056    0.997815   -0.022870
      7          6           0       -0.403721    0.245940    0.304953
      8          7           0       -1.626111    0.801269    0.302165
      9          6           0       -1.839980    2.088560   -0.009831
     10          6           0       -0.766725    2.895652   -0.341700
     11          6           0        0.513319    2.344478   -0.343392
     12          8           0       -3.773306   -0.670073    0.937983
     13          1           0        2.836544   -2.829608    0.331857
     14          1           0        3.477055   -1.906724   -2.139340
     15          1           0        1.757619   -2.056570   -1.721804
     16          1           0        3.482808    0.461010   -1.738219
     17          1           0        1.804511    0.299465   -2.266303
     18          1           0        4.087031   -1.562846    0.213060
     19          1           0        2.802531    1.104016    0.344618
     20          1           0       -0.324048   -0.803701    0.578039
     21          1           0       -2.870928    2.431999    0.021631
     22          1           0       -0.934007    3.941088   -0.589898
     23          1           0        1.369958    2.970482   -0.596333
     24          6           0        2.407471   -0.702132    2.109310
     25          1           0       -2.450525    0.206720    0.558301
     26          1           0       -4.129394   -0.825492    1.815418
     27          1           0       -4.315212   -1.193368    0.312288
     28          8           0       -5.227055   -2.080306   -0.868072
     29          1           0       -6.094840   -1.816155   -1.185870
     30          1           0       -5.181033   -3.032898   -0.987141
     31          1           0        1.651981   -0.051125    2.570524
     32          1           0        3.403680   -0.251693    2.284686
     33          1           0        2.372070   -1.672799    2.618034
 ---------------------------------------------------------------------
                    Distance matrix (angstroms):
                    1          2          3          4          5
     1  N    0.000000
     2  C    1.457714   0.000000
     3  C    2.400752   1.558070   0.000000
     4  C    2.330389   2.444414   1.536970   0.000000
     5  C    1.461032   2.355851   2.385738   1.522025   0.000000
     6  C    2.455610   1.515174   2.556691   3.533463   3.627335
     7  C    2.794474   2.523349   3.457344   3.993869   4.002983
     8  N    4.128333   3.759649   4.605597   5.226642   5.336398
     9  C    5.002336   4.292641   5.077776   5.993667   6.227131
    10  C    4.867363   3.828279   4.553960   5.745789   6.044475
    11  C    3.751741   2.548169   3.320419   4.602815   4.857814
    12  O    5.905362   6.037003   6.789751   6.955253   6.953498
    13  H    2.107562   3.301709   3.369445   2.205250   1.096768
    14  H    3.306604   3.373195   2.200735   1.094847   2.195036
    15  H    2.714860   2.950940   2.183538   1.097557   2.157575
    16  H    3.095184   2.180107   1.096016   2.178494   2.891588
    17  H    3.205940   2.221454   1.095949   2.206924   3.324969
    18  H    2.134550   2.787676   2.786496   2.175501   1.108333
    19  H    2.126861   1.107051   2.187198   3.211926   2.931503
    20  H    2.451573   2.756448   3.618303   3.718970   3.539770
    21  H    6.030923   5.375931   6.125032   7.003551   7.256587
    22  H    5.852497   4.714775   5.343133   6.640634   6.998268
    23  H    4.131687   2.757750   3.337758   4.790507   5.084380
    24  C    1.451055   2.440759   3.682948   3.679769   2.451354
    25  H    4.703406   4.585410   5.394856   5.800689   5.856870
    26  H    6.352183   6.604636   7.483521   7.605068   7.442974
    27  H    6.457727   6.601900   7.176516   7.240414   7.370818
    28  O    7.610540   7.755495   8.047801   7.962638   8.302209
    29  H    8.483074   8.543481   8.812247   8.799027   9.196643
    30  H    7.799129   8.077288   8.291054   8.029026   8.356687
    31  H    2.101897   2.702558   4.172202   4.425082   3.393723
    32  H    2.133862   2.760430   3.899988   4.026005   2.780762
    33  H    2.092388   3.378521   4.446560   4.092205   2.695390
                    6          7          8          9         10
     6  C    0.000000
     7  C    1.387244   0.000000
     8  N    2.371780   1.342623   0.000000
     9  C    2.778148   2.357367   1.341715   0.000000
    10  C    2.428809   2.751528   2.353624   1.383261   0.000000
    11  C    1.398904   2.380163   2.715769   2.390559   1.393667
    12  O    4.883696   3.548790   2.679470   3.499451   4.836477
    13  H    4.390411   4.467554   5.753211   6.795219   6.798222
    14  H    4.532596   5.066454   6.271880   6.983406   6.656125
    15  H    3.647270   3.752424   4.869633   5.749406   5.727260
    16  H    3.300157   4.396125   5.511805   5.828234   5.092767
    17  H    2.589903   3.389766   4.314858   4.644873   4.129835
    18  H    4.240621   4.842211   6.183605   6.965049   6.613994
    19  H    2.122234   3.319325   4.439181   4.758978   4.052232
    20  H    2.164784   1.087506   2.085043   3.317953   3.837590
    21  H    3.862401   3.308510   2.070640   1.087103   2.185098
    22  H    3.421080   3.838760   3.336652   2.142224   1.087438
    23  H    2.156194   3.373631   3.806470   3.380159   2.153103
    24  C    3.209405   3.472369   4.668594   5.506320   5.387673
    25  H    3.314286   2.062797   1.048214   2.058364   3.297808
    26  H    5.492945   4.160542   3.347045   4.130938   5.459635
    27  H    5.497018   4.167904   3.348125   4.123298   5.453398
    28  O    6.745212   5.481967   4.758122   5.439513   6.703116
    29  H    7.459603   6.234070   5.388385   5.893530   7.162580
    30  H    7.206964   5.936581   5.385222   6.192504   7.419597
    31  H    2.950220   3.073592   4.076508   4.840483   4.797362
    32  H    3.756965   4.320102   5.507987   6.183653   5.847731
    33  H    4.105149   4.091078   5.241156   6.228552   6.283534
                   11         12         13         14         15
    11  C    0.000000
    12  O    5.394867   0.000000
    13  H    5.711786   6.980050   0.000000
    14  H    5.484695   7.972889   2.714550   0.000000
    15  H    4.776769   6.291897   2.445238   1.775739   0.000000
    16  H    3.782970   7.816175   3.940944   2.401478   3.052008
    17  H    3.089796   6.505344   4.196025   2.771424   2.418590
    18  H    5.324306   7.944020   1.783961   2.454406   3.068163
    19  H    2.693064   6.836747   3.933792   3.961008   3.918066
    20  H    3.385447   3.470561   3.762213   4.800957   3.345489
    21  H    3.405001   3.358100   7.768911   7.986939   6.679092
    22  H    2.169028   5.626619   7.804423   7.486998   6.670679
    23  H    1.090729   6.485440   6.054210   5.532438   5.166064
    24  C    4.345733   6.290869   2.805280   4.543796   4.115124
    25  H    3.763965   1.631770   6.101120   6.846906   5.294321
    26  H    6.021956   0.959607   7.398765   8.641021   6.977422
    27  H    6.021709   0.979282   7.336571   8.199926   6.462347
    28  O    7.266767   2.713665   8.186752   8.798169   7.036696
    29  H    7.854196   3.348698   9.115931   9.619692   7.874398
    30  H    7.858513   3.357192   8.127892   8.806720   7.045413
    31  H    3.940352   5.699300   3.759626   5.381167   4.738887
    32  H    4.690531   7.314218   3.283417   4.724036   4.692447
    33  H    5.325741   6.449316   2.603949   4.889613   4.399889
                   16         17         18         19         20
    16  H    0.000000
    17  H    1.766819   0.000000
    18  H    2.875512   3.850369   0.000000
    19  H    2.283516   2.908652   2.963005   0.000000
    20  H    4.632137   3.719949   4.490783   3.670063   0.000000
    21  H    6.881267   5.625129   8.025498   5.835752   4.155231
    22  H    5.739150   4.855021   7.493254   4.783724   4.924343
    23  H    3.473541   3.179932   5.346837   2.534038   4.300379
    24  C    4.160857   4.529100   2.675353   2.555852   3.133098
    25  H    6.367347   5.108064   6.781607   5.333423   2.354410
    26  H    8.498767   7.289527   8.403623   7.344238   4.001530
    27  H    8.231079   6.806518   8.410948   7.479391   4.018937
    28  O    9.114667   7.553892   9.390890   8.722659   5.268817
    29  H    9.860117   8.248814  10.280645   9.488572   6.118699
    30  H    9.371961   7.844662   9.460367   9.089826   5.568609
    31  H    4.709509   4.851914   3.711119   2.759126   2.905350
    32  H    4.086315   4.855164   2.545138   2.441965   4.136824
    33  H    4.976326   5.297990   2.955855   3.614473   3.490840
                   21         22         23         24         25
    21  H    0.000000
    22  H    2.530411   0.000000
    23  H    4.319370   2.500074   0.000000
    24  C    6.484032   6.325400   4.678144   0.000000
    25  H    2.327363   4.190906   4.854652   5.179939   0.000000
    26  H    3.925896   6.222245   7.104142   6.544631   2.337607
    27  H    3.913275   6.213624   7.105237   6.976035   2.344744
    28  O    5.167572   7.400326   8.312935   8.309642   3.869644
    29  H    5.467950   7.754691   8.887219   9.186324   4.518317
    30  H    6.018248   8.175054   8.894312   8.520908   4.509899
    31  H    5.754951   5.710811   4.386186   1.098769   4.576689
    32  H    7.189877   6.682677   4.776893   1.107287   6.120642
    33  H    7.147007   7.262004   5.735542   1.096471   5.570683
                   26         27         28         29         30
    26  H    0.000000
    27  H    1.558609   0.000000
    28  O    3.159199   1.735329   0.000000
    29  H    3.721844   2.408198   0.961157   0.000000
    30  H    3.719264   2.412889   0.961107   1.534601   0.000000
    31  H    5.881677   6.481646   7.953782   8.788576   8.260631
    32  H    7.569456   8.022369   9.368740  10.232995   9.598815
    33  H    6.605388   7.089856   8.370526   9.283254   8.479182
                   31         32         33
    31  H    0.000000
    32  H    1.786164   0.000000
    33  H    1.774996   1.787423   0.000000
 Stoichiometry    C10H19N2O2(1+)
 Framework group  C1[X(C10H19N2O2)]
 Deg. of freedom    93
 Full point group                 C1      NOp   1
 Largest Abelian subgroup         C1      NOp   1
 Largest concise Abelian subgroup C1      NOp   1
                         Standard orientation:                         
 ---------------------------------------------------------------------
 Center     Atomic      Atomic             Coordinates (Angstroms)
 Number     Number       Type             X           Y           Z
 ---------------------------------------------------------------------
      1          7           0        2.123410   -0.880368    0.697537
      2          6           0        2.089786    0.362073   -0.064132
      3          6           0        2.527268   -0.024309   -1.508743
      4          6           0        2.695939   -1.551203   -1.459522
      5          6           0        3.024254   -1.799388    0.005802
      6          6           0        0.715056    0.997815   -0.022870
      7          6           0       -0.403721    0.245940    0.304953
      8          7           0       -1.626111    0.801269    0.302165
      9          6           0       -1.839980    2.088560   -0.009831
     10          6           0       -0.766725    2.895652   -0.341700
     11          6           0        0.513319    2.344478   -0.343392
     12          8           0       -3.773306   -0.670073    0.937983
     13          1           0        2.836544   -2.829608    0.331857
     14          1           0        3.477055   -1.906724   -2.139340
     15          1           0        1.757619   -2.056570   -1.721804
     16          1           0        3.482808    0.461010   -1.738219
     17          1           0        1.804511    0.299465   -2.266303
     18          1           0        4.087031   -1.562846    0.213060
     19          1           0        2.802531    1.104016    0.344618
     20          1           0       -0.324048   -0.803701    0.578039
     21          1           0       -2.870928    2.431999    0.021631
     22          1           0       -0.934007    3.941088   -0.589898
     23          1           0        1.369958    2.970482   -0.596333
     24          6           0        2.407471   -0.702132    2.109310
     25          1           0       -2.450525    0.206720    0.558301
     26          1           0       -4.129394   -0.825492    1.815418
     27          1           0       -4.315212   -1.193368    0.312288
     28          8           0       -5.227055   -2.080306   -0.868072
     29          1           0       -6.094840   -1.816155   -1.185870
     30          1           0       -5.181033   -3.032898   -0.987141
     31          1           0        1.651981   -0.051125    2.570524
     32          1           0        3.403680   -0.251693    2.284686
     33          1           0        2.372070   -1.672799    2.618034
 ---------------------------------------------------------------------
 Rotational constants (GHZ):           0.7678157           0.3144043           0.2670466
 Standard basis: Aug-CC-pVDZ (5D, 7F)
 There are   521 symmetry adapted cartesian basis functions of A   symmetry.
 There are   493 symmetry adapted basis functions of A   symmetry.
   493 basis functions,   811 primitive gaussians,   521 cartesian basis functions
    54 alpha electrons       54 beta electrons
       nuclear repulsion energy       914.0096878373 Hartrees.
 NAtoms=   33 NActive=   33 NUniq=   33 SFac= 1.00D+00 NAtFMM=   60 NAOKFM=F Big=F
 Integral buffers will be    131072 words long.
 Raffenetti 2 integral format.
 Two-electron integral symmetry is turned on.
 Nuclear repulsion after empirical dispersion term =      913.9879642054 Hartrees.
 One-electron integrals computed using PRISM.
 NBasis=   493 RedAO= T EigKep=  2.57D-06  NBF=   493
 NBsUse=   493 1.00D-06 EigRej= -1.00D+00 NBFU=   493
 ExpMin= 2.97D-02 ExpMax= 1.17D+04 ExpMxC= 4.01D+02 IAcc=3 IRadAn=         5 AccDes= 0.00D+00
 Harris functional with IExCor= 4639 and IRadAn=       5 diagonalized for initial guess.
 HarFok:  IExCor= 4639 AccDes= 0.00D+00 IRadAn=         5 IDoV= 1 UseB2=F ITyADJ=14
 ICtDFT=  3500011 ScaDFX=  1.000000  1.000000  1.000000  1.000000
 FoFCou: FMM=F IPFlag=           0 FMFlag=      100000 FMFlg1=           0
         NFxFlg=           0 DoJE=T BraDBF=F KetDBF=T FulRan=T
         wScrn=  0.000000 ICntrl=       500 IOpCl=  0 I1Cent=   200000004 NGrid=           0
         NMat0=    1 NMatS0=      1 NMatT0=    0 NMatD0=    1 NMtDS0=    0 NMtDT0=    0
 Petite list used in FoFCou.
 Requested convergence on RMS density matrix=1.00D-08 within 128 cycles.
 Requested convergence on MAX density matrix=1.00D-06.
 Requested convergence on             energy=1.00D-06.
 No special actions if energy rises.
 SCF Done:  E(RwB97XD) =  -652.152011421     A.U. after   14 cycles
            NFock= 14  Conv=0.70D-08     -V/T= 2.0064
 DoSCS=F DFT=T ScalE2(SS,OS)=  1.000000  1.000000
 Range of M.O.s used for correlation:     1   493
 NBasis=   493 NAE=    54 NBE=    54 NFC=     0 NFV=     0
 NROrb=    493 NOA=    54 NOB=    54 NVA=   439 NVB=   439

 **** Warning!!: The largest alpha MO coefficient is  0.93399432D+02

 Symmetrizing basis deriv contribution to polar:
 IMax=3 JMax=2 DiffMx= 0.00D+00
 G2DrvN: will do    34 centers at a time, making    1 passes.
 Calling FoFCou, ICntrl=  3107 FMM=F I1Cent=   0 AccDes= 0.00D+00.
 End of G2Drv F.D. properties file   721 does not exist.
 End of G2Drv F.D. properties file   722 does not exist.
 End of G2Drv F.D. properties file   788 does not exist.
          IDoAtm=111111111111111111111111111111111
          Differentiating once with respect to electric field.
                with respect to dipole field.
          Differentiating once with respect to nuclear coordinates.
 CalDSu exits because no D1Ps are significant.
          There are   102 degrees of freedom in the 1st order CPHF.  IDoFFX=6 NUNeed=     3.
     99 vectors produced by pass  0 Test12= 2.37D-14 1.00D-09 XBig12= 7.05D+01 3.66D+00.
 AX will form    99 AO Fock derivatives at one time.
     99 vectors produced by pass  1 Test12= 2.37D-14 1.00D-09 XBig12= 9.22D+00 5.95D-01.
     99 vectors produced by pass  2 Test12= 2.37D-14 1.00D-09 XBig12= 2.32D-01 6.43D-02.
     99 vectors produced by pass  3 Test12= 2.37D-14 1.00D-09 XBig12= 2.40D-03 4.24D-03.
     99 vectors produced by pass  4 Test12= 2.37D-14 1.00D-09 XBig12= 2.10D-05 3.37D-04.
     99 vectors produced by pass  5 Test12= 2.37D-14 1.00D-09 XBig12= 1.37D-07 2.23D-05.
     97 vectors produced by pass  6 Test12= 2.37D-14 1.00D-09 XBig12= 7.90D-10 2.15D-06.
     41 vectors produced by pass  7 Test12= 2.37D-14 1.00D-09 XBig12= 3.91D-12 1.00D-07.
      3 vectors produced by pass  8 Test12= 2.37D-14 1.00D-09 XBig12= 2.15D-14 8.61D-09.
      3 vectors produced by pass  9 Test12= 2.37D-14 1.00D-09 XBig12= 1.34D-15 3.23D-09.
 InvSVY:  IOpt=1 It=  1 EMax= 7.11D-15
 Solved reduced A of dimension   738 with   102 vectors.
 Isotropic polarizability for W=    0.000000      144.60 Bohr**3.
 End of Minotr F.D. properties file   721 does not exist.
 End of Minotr F.D. properties file   722 does not exist.
 End of Minotr F.D. properties file   788 does not exist.

 **********************************************************************

            Population analysis using the SCF density.

 **********************************************************************

 Orbital symmetries:
       Occupied  (A) (A) (A) (A) (A) (A) (A) (A) (A) (A) (A) (A)
                 (A) (A) (A) (A) (A) (A) (A) (A) (A) (A) (A) (A)
                 (A) (A) (A) (A) (A) (A) (A) (A) (A) (A) (A) (A)
                 (A) (A) (A) (A) (A) (A) (A) (A) (A) (A) (A) (A)
                 (A) (A) (A) (A) (A) (A)
       Virtual   (A) (A) (A) (A) (A) (A) (A) (A) (A) (A) (A) (A)
                 (A) (A) (A) (A) (A) (A) (A) (A) (A) (A) (A) (A)
                 (A) (A) (A) (A) (A) (A) (A) (A) (A) (A) (A) (A)
                 (A) (A) (A) (A) (A) (A) (A) (A) (A) (A) (A) (A)
                 (A) (A) (A) (A) (A) (A) (A) (A) (A) (A) (A) (A)
                 (A) (A) (A) (A) (A) (A) (A) (A) (A) (A) (A) (A)
                 (A) (A) (A) (A) (A) (A) (A) (A) (A) (A) (A) (A)
                 (A) (A) (A) (A) (A) (A) (A) (A) (A) (A) (A) (A)
                 (A) (A) (A) (A) (A) (A) (A) (A) (A) (A) (A) (A)
                 (A) (A) (A) (A) (A) (A) (A) (A) (A) (A) (A) (A)
                 (A) (A) (A) (A) (A) (A) (A) (A) (A) (A) (A) (A)
                 (A) (A) (A) (A) (A) (A) (A) (A) (A) (A) (A) (A)
                 (A) (A) (A) (A) (A) (A) (A) (A) (A) (A) (A) (A)
                 (A) (A) (A) (A) (A) (A) (A) (A) (A) (A) (A) (A)
                 (A) (A) (A) (A) (A) (A) (A) (A) (A) (A) (A) (A)
                 (A) (A) (A) (A) (A) (A) (A) (A) (A) (A) (A) (A)
                 (A) (A) (A) (A) (A) (A) (A) (A) (A) (A) (A) (A)
                 (A) (A) (A) (A) (A) (A) (A) (A) (A) (A) (A) (A)
                 (A) (A) (A) (A) (A) (A) (A) (A) (A) (A) (A) (A)
                 (A) (A) (A) (A) (A) (A) (A) (A) (A) (A) (A) (A)
                 (A) (A) (A) (A) (A) (A) (A) (A) (A) (A) (A) (A)
                 (A) (A) (A) (A) (A) (A) (A) (A) (A) (A) (A) (A)
                 (A) (A) (A) (A) (A) (A) (A) (A) (A) (A) (A) (A)
                 (A) (A) (A) (A) (A) (A) (A) (A) (A) (A) (A) (A)
                 (A) (A) (A) (A) (A) (A) (A) (A) (A) (A) (A) (A)
                 (A) (A) (A) (A) (A) (A) (A) (A) (A) (A) (A) (A)
                 (A) (A) (A) (A) (A) (A) (A) (A) (A) (A) (A) (A)
                 (A) (A) (A) (A) (A) (A) (A) (A) (A) (A) (A) (A)
                 (A) (A) (A) (A) (A) (A) (A) (A) (A) (A) (A) (A)
                 (A) (A) (A) (A) (A) (A) (A) (A) (A) (A) (A) (A)
                 (A) (A) (A) (A) (A) (A) (A) (A) (A) (A) (A) (A)
                 (A) (A) (A) (A) (A) (A) (A) (A) (A) (A) (A) (A)
                 (A) (A) (A) (A) (A) (A) (A) (A) (A) (A) (A) (A)
                 (A) (A) (A) (A) (A) (A) (A) (A) (A) (A) (A) (A)
                 (A) (A) (A) (A) (A) (A) (A) (A) (A) (A) (A) (A)
                 (A) (A) (A) (A) (A) (A) (A) (A) (A) (A) (A) (A)
                 (A) (A) (A) (A) (A) (A) (A)
 The electronic state is 1-A.
 Alpha  occ. eigenvalues --  -19.41501 -19.40529 -14.67727 -14.55200 -10.50991
 Alpha  occ. eigenvalues --  -10.50191 -10.47549 -10.46809 -10.46700 -10.45278
 Alpha  occ. eigenvalues --  -10.41611 -10.41608 -10.40685 -10.39421  -1.26251
 Alpha  occ. eigenvalues --   -1.25744  -1.24354  -1.15628  -1.07980  -1.04299
 Alpha  occ. eigenvalues --   -0.99380  -0.95131  -0.90497  -0.88888  -0.87524
 Alpha  occ. eigenvalues --   -0.82346  -0.78722  -0.77861  -0.76248  -0.76205
 Alpha  occ. eigenvalues --   -0.74162  -0.73581  -0.70366  -0.69083  -0.68764
 Alpha  occ. eigenvalues --   -0.67503  -0.64592  -0.64146  -0.63707  -0.62204
 Alpha  occ. eigenvalues --   -0.61344  -0.60711  -0.58838  -0.57213  -0.56418
 Alpha  occ. eigenvalues --   -0.55306  -0.54508  -0.54401  -0.54220  -0.52670
 Alpha  occ. eigenvalues --   -0.52529  -0.51317  -0.48732  -0.41141
 Alpha virt. eigenvalues --   -0.14004  -0.10354  -0.07162  -0.05507  -0.04588
 Alpha virt. eigenvalues --   -0.04452  -0.03791  -0.03037  -0.02924  -0.02613
 Alpha virt. eigenvalues --   -0.01690  -0.01480  -0.01072  -0.00601  -0.00264
 Alpha virt. eigenvalues --   -0.00021   0.00521   0.00845   0.01876   0.02033
 Alpha virt. eigenvalues --    0.02205   0.02335   0.03124   0.03139   0.03809
 Alpha virt. eigenvalues --    0.04125   0.04209   0.04512   0.05053   0.05140
 Alpha virt. eigenvalues --    0.05595   0.05768   0.06010   0.06481   0.06601
 Alpha virt. eigenvalues --    0.06777   0.07391   0.07827   0.08001   0.08449
 Alpha virt. eigenvalues --    0.08570   0.08943   0.09027   0.09456   0.09873
 Alpha virt. eigenvalues --    0.10283   0.10443   0.10801   0.10974   0.11478
 Alpha virt. eigenvalues --    0.11584   0.12113   0.12458   0.12773   0.12955
 Alpha virt. eigenvalues --    0.13415   0.13508   0.13717   0.14389   0.14922
 Alpha virt. eigenvalues --    0.15047   0.15361   0.15650   0.15902   0.16391
 Alpha virt. eigenvalues --    0.16681   0.16888   0.16967   0.17232   0.17508
 Alpha virt. eigenvalues --    0.17888   0.18486   0.18680   0.19091   0.19391
 Alpha virt. eigenvalues --    0.19873   0.20372   0.20766   0.21053   0.21286
 Alpha virt. eigenvalues --    0.21618   0.22194   0.22637   0.23016   0.23306
 Alpha virt. eigenvalues --    0.23793   0.24064   0.24395   0.24842   0.25286
 Alpha virt. eigenvalues --    0.25457   0.26180   0.26489   0.26805   0.27031
 Alpha virt. eigenvalues --    0.28220   0.28524   0.28743   0.29070   0.29227
 Alpha virt. eigenvalues --    0.29407   0.29783   0.30414   0.30779   0.31321
 Alpha virt. eigenvalues --    0.31828   0.33162   0.33261   0.33338   0.33723
 Alpha virt. eigenvalues --    0.34260   0.34623   0.35328   0.35683   0.35878
 Alpha virt. eigenvalues --    0.36076   0.36440   0.37303   0.37848   0.38379
 Alpha virt. eigenvalues --    0.38487   0.39116   0.39287   0.39839   0.40217
 Alpha virt. eigenvalues --    0.41056   0.41548   0.41720   0.42467   0.43077
 Alpha virt. eigenvalues --    0.43225   0.43832   0.43898   0.44032   0.44767
 Alpha virt. eigenvalues --    0.45289   0.45613   0.46045   0.46584   0.46720
 Alpha virt. eigenvalues --    0.47418   0.48097   0.48675   0.49199   0.49659
 Alpha virt. eigenvalues --    0.49837   0.50373   0.50474   0.50552   0.50726
 Alpha virt. eigenvalues --    0.51109   0.51447   0.51925   0.52789   0.53084
 Alpha virt. eigenvalues --    0.53631   0.53750   0.54037   0.54689   0.55462
 Alpha virt. eigenvalues --    0.55721   0.56523   0.56631   0.56911   0.57669
 Alpha virt. eigenvalues --    0.57974   0.58232   0.58550   0.59064   0.59629
 Alpha virt. eigenvalues --    0.60234   0.60340   0.61586   0.61916   0.62404
 Alpha virt. eigenvalues --    0.62784   0.63231   0.63770   0.64652   0.64863
 Alpha virt. eigenvalues --    0.65240   0.65642   0.65909   0.66199   0.66771
 Alpha virt. eigenvalues --    0.67920   0.68102   0.68524   0.69224   0.69793
 Alpha virt. eigenvalues --    0.70199   0.70541   0.71017   0.71522   0.71917
 Alpha virt. eigenvalues --    0.72412   0.73681   0.74117   0.74372   0.74848
 Alpha virt. eigenvalues --    0.75020   0.75523   0.76560   0.76863   0.77873
 Alpha virt. eigenvalues --    0.78056   0.78352   0.78809   0.79570   0.79877
 Alpha virt. eigenvalues --    0.80532   0.81250   0.81560   0.82060   0.84302
 Alpha virt. eigenvalues --    0.85056   0.85445   0.85682   0.86091   0.86958
 Alpha virt. eigenvalues --    0.88019   0.88550   0.89252   0.90471   0.91199
 Alpha virt. eigenvalues --    0.92429   0.92701   0.94429   0.94914   0.95832
 Alpha virt. eigenvalues --    0.96207   0.97211   0.98114   0.98524   1.00214
 Alpha virt. eigenvalues --    1.00803   1.01319   1.01906   1.02369   1.03342
 Alpha virt. eigenvalues --    1.03807   1.04760   1.05373   1.07400   1.07748
 Alpha virt. eigenvalues --    1.09549   1.10151   1.10837   1.12009   1.13185
 Alpha virt. eigenvalues --    1.13663   1.15608   1.16633   1.17562   1.18247
 Alpha virt. eigenvalues --    1.18808   1.19825   1.20621   1.22922   1.23182
 Alpha virt. eigenvalues --    1.23755   1.25857   1.26726   1.27918   1.30205
 Alpha virt. eigenvalues --    1.30880   1.32363   1.32725   1.33585   1.34367
 Alpha virt. eigenvalues --    1.34728   1.34955   1.37123   1.37683   1.38815
 Alpha virt. eigenvalues --    1.39702   1.40464   1.41158   1.42518   1.43521
 Alpha virt. eigenvalues --    1.44766   1.45645   1.47131   1.47780   1.48885
 Alpha virt. eigenvalues --    1.50051   1.50622   1.52294   1.52949   1.54022
 Alpha virt. eigenvalues --    1.55081   1.56891   1.57906   1.58363   1.60251
 Alpha virt. eigenvalues --    1.60978   1.61546   1.62770   1.63176   1.63558
 Alpha virt. eigenvalues --    1.64662   1.65773   1.66594   1.67584   1.68311
 Alpha virt. eigenvalues --    1.68862   1.70666   1.71463   1.71703   1.72343
 Alpha virt. eigenvalues --    1.73268   1.74548   1.75068   1.75728   1.76589
 Alpha virt. eigenvalues --    1.78256   1.79158   1.80323   1.81674   1.82043
 Alpha virt. eigenvalues --    1.83106   1.83693   1.84628   1.85153   1.86318
 Alpha virt. eigenvalues --    1.87185   1.87661   1.88807   1.89487   1.90285
 Alpha virt. eigenvalues --    1.91216   1.92373   1.93013   1.94102   1.94267
 Alpha virt. eigenvalues --    1.95584   1.96139   1.96941   1.97126   1.97804
 Alpha virt. eigenvalues --    2.00071   2.01923   2.02464   2.04886   2.05466
 Alpha virt. eigenvalues --    2.06548   2.07769   2.08269   2.08803   2.09297
 Alpha virt. eigenvalues --    2.10809   2.11428   2.11796   2.13450   2.13992
 Alpha virt. eigenvalues --    2.15505   2.16641   2.17731   2.18646   2.19066
 Alpha virt. eigenvalues --    2.19699   2.20971   2.22387   2.23563   2.23855
 Alpha virt. eigenvalues --    2.26416   2.27554   2.28742   2.29790   2.29866
 Alpha virt. eigenvalues --    2.31723   2.33292   2.33888   2.35481   2.36450
 Alpha virt. eigenvalues --    2.36797   2.40721   2.41742   2.42443   2.43111
 Alpha virt. eigenvalues --    2.44179   2.46865   2.47741   2.48068   2.50242
 Alpha virt. eigenvalues --    2.50625   2.52502   2.53754   2.55159   2.56213
 Alpha virt. eigenvalues --    2.56399   2.58025   2.60039   2.62181   2.63509
 Alpha virt. eigenvalues --    2.64039   2.64766   2.65517   2.66004   2.67870
 Alpha virt. eigenvalues --    2.70218   2.72929   2.73134   2.74214   2.76868
 Alpha virt. eigenvalues --    2.77169   2.78676   2.80682   2.81822   2.83541
 Alpha virt. eigenvalues --    2.83937   2.84550   2.87051   2.89293   2.89981
 Alpha virt. eigenvalues --    2.96603   3.01958   3.03319   3.10514   3.14131
 Alpha virt. eigenvalues --    3.15028   3.20981   3.25383   3.27544   3.31073
 Alpha virt. eigenvalues --    3.34991   3.41762   3.44484   3.47382   3.48041
 Alpha virt. eigenvalues --    3.54707   3.59579   3.65734   3.78320   3.80052
 Alpha virt. eigenvalues --    3.88903   4.02354   4.17751   4.51138
          Condensed to atoms (all electrons):
               1          2          3          4          5          6
     1  N    9.386354  -2.680087  -0.384139   0.095384   0.035524   0.938525
     2  C   -2.680087  18.102307  -0.191052  -1.023112   0.057093  -4.469960
     3  C   -0.384139  -0.191052   5.995924   0.076345  -0.022799   0.412976
     4  C    0.095384  -1.023112   0.076345   5.628879   0.221948   0.463777
     5  C    0.035524   0.057093  -0.022799   0.221948   5.461175  -0.180972
     6  C    0.938525  -4.469960   0.412976   0.463777  -0.180972  20.083501
     7  C    0.863564  -3.068749  -0.448082   0.176898  -0.312970  -2.672617
     8  N   -0.150332   0.708611   0.058190  -0.078042   0.050403  -0.017699
     9  C   -0.051537  -0.141288  -0.215112  -0.028419  -0.005053  -1.956459
    10  C    0.053325  -0.456340   0.355872   0.058292  -0.004725   1.866420
    11  C   -0.376927  -0.236798  -0.434265  -0.277679   0.084109  -9.822934
    12  O    0.002452   0.000080  -0.001105  -0.000396   0.000262  -0.105729
    13  H   -0.638954   0.505754   0.059076  -0.060446   0.021782  -0.195945
    14  H   -0.005011   0.076202   0.234605  -0.193868   0.087850  -0.073398
    15  H    0.071594  -0.144719  -0.036127  -0.110403  -0.067322   0.165086
    16  H    0.142523   0.231794  -0.652134   0.095693  -0.198088   0.285863
    17  H    0.011235  -0.096358  -0.116451   0.157384   0.151319  -0.513135
    18  H    0.367324  -0.411376  -0.029520   0.001611  -0.297827   0.209532
    19  H   -0.197880  -1.436678   0.355202   0.103990  -0.035032   0.478546
    20  H   -0.382666   0.688359   0.027968   0.039397   0.037526  -0.248940
    21  H    0.002912   0.004237   0.004872   0.000155  -0.000832   0.117083
    22  H   -0.002374  -0.009063  -0.014030   0.000389  -0.000709  -0.266209
    23  H    0.059402  -0.482986   0.057250   0.028625  -0.019475   1.145402
    24  C    0.471939  -0.338202  -0.015670  -0.002950  -0.233456  -0.053213
    25  H    0.018452  -0.098747  -0.034221   0.005222   0.003197  -0.489742
    26  H    0.000045   0.001318   0.000607  -0.000012  -0.000064   0.008756
    27  H   -0.000120  -0.000116  -0.000211   0.000088  -0.000007  -0.005034
    28  O   -0.000046   0.000413   0.000035   0.000019  -0.000025   0.002267
    29  H   -0.000008   0.000058   0.000001   0.000005  -0.000010   0.000554
    30  H   -0.000016   0.000031   0.000058  -0.000010   0.000024   0.000506
    31  H   -0.054760   0.089152   0.053877  -0.021330  -0.130101   0.188037
    32  H    0.136388  -0.101500  -0.048517   0.044149   0.057079   0.041091
    33  H   -0.341069  -0.015280  -0.000463   0.001022   0.079955  -0.042029
               7          8          9         10         11         12
     1  N    0.863564  -0.150332  -0.051537   0.053325  -0.376927   0.002452
     2  C   -3.068749   0.708611  -0.141288  -0.456340  -0.236798   0.000080
     3  C   -0.448082   0.058190  -0.215112   0.355872  -0.434265  -0.001105
     4  C    0.176898  -0.078042  -0.028419   0.058292  -0.277679  -0.000396
     5  C   -0.312970   0.050403  -0.005053  -0.004725   0.084109   0.000262
     6  C   -2.672617  -0.017699  -1.956459   1.866420  -9.822934  -0.105729
     7  C   15.680499  -1.546552  -0.622567  -1.025347  -1.903185   0.068247
     8  N   -1.546552   7.734376   0.428705   0.030325   0.159003  -0.168620
     9  C   -0.622567   0.428705   9.799237  -2.661348   1.713853   0.055420
    10  C   -1.025347   0.030325  -2.661348  11.758775  -4.106099  -0.055585
    11  C   -1.903185   0.159003   1.713853  -4.106099  21.725029   0.052819
    12  O    0.068247  -0.168620   0.055420  -0.055585   0.052819   7.916793
    13  H   -0.054572   0.010635  -0.000608  -0.000815   0.013077   0.000018
    14  H   -0.008081  -0.003284  -0.005239   0.008176   0.000206  -0.000002
    15  H    0.076601  -0.008346   0.011891  -0.008057  -0.014693  -0.000009
    16  H    0.106036  -0.010252   0.011778  -0.017322  -0.065314  -0.000041
    17  H   -0.088387   0.026381  -0.019078   0.035862   0.142835   0.000170
    18  H    0.011628  -0.001370   0.002078   0.002379  -0.007660  -0.000033
    19  H   -0.067659   0.007971  -0.035848   0.060573  -0.053389   0.000074
    20  H   -1.003659   0.038436  -0.073719   0.060524  -0.110619  -0.006810
    21  H    0.224022  -0.047174  -0.866072   0.311619   0.002300  -0.001181
    22  H    0.013733  -0.032410   0.468054  -1.138207   0.710691  -0.001231
    23  H    0.254030  -0.092355  -0.214995   0.781914  -2.269959   0.001040
    24  C    0.185709  -0.015026  -0.017101  -0.025977  -0.090046  -0.000301
    25  H    0.474437  -0.097997  -0.283457  -0.213747   0.096777   0.022026
    26  H   -0.000848   0.002784  -0.010241   0.010018  -0.004442   0.360760
    27  H    0.006894   0.001561  -0.006090  -0.000409   0.004477   0.330583
    28  O   -0.003642   0.000362   0.007001   0.002122  -0.000597  -0.037027
    29  H    0.000437   0.000252  -0.001270   0.000055  -0.000213   0.001764
    30  H   -0.001770   0.000438  -0.000011   0.000539  -0.000342   0.001393
    31  H   -0.073463  -0.001857  -0.037411   0.041126  -0.168411   0.000336
    32  H    0.061837  -0.006900   0.003844  -0.002521   0.043560   0.000054
    33  H   -0.017297   0.009641   0.007313  -0.010069   0.033382  -0.000171
              13         14         15         16         17         18
     1  N   -0.638954  -0.005011   0.071594   0.142523   0.011235   0.367324
     2  C    0.505754   0.076202  -0.144719   0.231794  -0.096358  -0.411376
     3  C    0.059076   0.234605  -0.036127  -0.652134  -0.116451  -0.029520
     4  C   -0.060446  -0.193868  -0.110403   0.095693   0.157384   0.001611
     5  C    0.021782   0.087850  -0.067322  -0.198088   0.151319  -0.297827
     6  C   -0.195945  -0.073398   0.165086   0.285863  -0.513135   0.209532
     7  C   -0.054572  -0.008081   0.076601   0.106036  -0.088387   0.011628
     8  N    0.010635  -0.003284  -0.008346  -0.010252   0.026381  -0.001370
     9  C   -0.000608  -0.005239   0.011891   0.011778  -0.019078   0.002078
    10  C   -0.000815   0.008176  -0.008057  -0.017322   0.035862   0.002379
    11  C    0.013077   0.000206  -0.014693  -0.065314   0.142835  -0.007660
    12  O    0.000018  -0.000002  -0.000009  -0.000041   0.000170  -0.000033
    13  H    2.384070   0.011782  -0.201109  -0.019438   0.012812  -0.381420
    14  H    0.011782   1.798397  -0.393819  -0.217025   0.046475  -0.146387
    15  H   -0.201109  -0.393819   2.031797   0.156793  -0.240174   0.146357
    16  H   -0.019438  -0.217025   0.156793   2.164702  -0.459003   0.066225
    17  H    0.012812   0.046475  -0.240174  -0.459003   2.295548  -0.016756
    18  H   -0.381420  -0.146387   0.146357   0.066225  -0.016756   1.973461
    19  H    0.036488   0.027749  -0.036319  -0.251421   0.103112  -0.051683
    20  H    0.016145   0.008404  -0.025126  -0.009324   0.023879   0.003409
    21  H   -0.000110  -0.000083   0.000277   0.000967  -0.000351   0.000079
    22  H   -0.000051   0.000100   0.000137  -0.001519  -0.002529  -0.000009
    23  H   -0.002206   0.001374   0.003292   0.002700  -0.013486   0.000666
    24  C   -0.032401   0.005816  -0.005342   0.000569   0.002648   0.012788
    25  H   -0.001923   0.000090   0.003967   0.000453   0.000551   0.000116
    26  H    0.000073   0.000002  -0.000073   0.000009   0.000006  -0.000008
    27  H   -0.000043   0.000036  -0.000150  -0.000017   0.000077  -0.000007
    28  O    0.000009   0.000002  -0.000080  -0.000001   0.000090  -0.000002
    29  H    0.000002   0.000000   0.000004  -0.000001  -0.000003  -0.000000
    30  H    0.000004  -0.000002  -0.000002   0.000001   0.000006  -0.000000
    31  H   -0.009383  -0.001242  -0.000559   0.000037  -0.001070  -0.000320
    32  H    0.017930   0.006532  -0.004571   0.001182   0.000413   0.010275
    33  H    0.019768  -0.004458   0.006967   0.000611   0.000897  -0.003679
              19         20         21         22         23         24
     1  N   -0.197880  -0.382666   0.002912  -0.002374   0.059402   0.471939
     2  C   -1.436678   0.688359   0.004237  -0.009063  -0.482986  -0.338202
     3  C    0.355202   0.027968   0.004872  -0.014030   0.057250  -0.015670
     4  C    0.103990   0.039397   0.000155   0.000389   0.028625  -0.002950
     5  C   -0.035032   0.037526  -0.000832  -0.000709  -0.019475  -0.233456
     6  C    0.478546  -0.248940   0.117083  -0.266209   1.145402  -0.053213
     7  C   -0.067659  -1.003659   0.224022   0.013733   0.254030   0.185709
     8  N    0.007971   0.038436  -0.047174  -0.032410  -0.092355  -0.015026
     9  C   -0.035848  -0.073719  -0.866072   0.468054  -0.214995  -0.017101
    10  C    0.060573   0.060524   0.311619  -1.138207   0.781914  -0.025977
    11  C   -0.053389  -0.110619   0.002300   0.710691  -2.269959  -0.090046
    12  O    0.000074  -0.006810  -0.001181  -0.001231   0.001040  -0.000301
    13  H    0.036488   0.016145  -0.000110  -0.000051  -0.002206  -0.032401
    14  H    0.027749   0.008404  -0.000083   0.000100   0.001374   0.005816
    15  H   -0.036319  -0.025126   0.000277   0.000137   0.003292  -0.005342
    16  H   -0.251421  -0.009324   0.000967  -0.001519   0.002700   0.000569
    17  H    0.103112   0.023879  -0.000351  -0.002529  -0.013486   0.002648
    18  H   -0.051683   0.003409   0.000079  -0.000009   0.000666   0.012788
    19  H    2.423120   0.044332  -0.000582  -0.000109  -0.044324   0.081569
    20  H    0.044332   2.992510   0.013693  -0.001071  -0.023862  -0.075036
    21  H   -0.000582   0.013693   2.152842  -0.118649  -0.013095  -0.000225
    22  H   -0.000109  -0.001071  -0.118649   2.071908  -0.132126   0.002223
    23  H   -0.044324  -0.023862  -0.013095  -0.132126   2.821718   0.008939
    24  C    0.081569  -0.075036  -0.000225   0.002223   0.008939   4.573479
    25  H   -0.007479  -0.073760  -0.146289   0.011212   0.013289  -0.004391
    26  H    0.000027   0.002107   0.005765  -0.000202  -0.000091   0.000168
    27  H    0.000045   0.001901   0.000971  -0.000015  -0.000059   0.000297
    28  O    0.000026   0.002449   0.001764   0.000026  -0.000034  -0.000012
    29  H    0.000003  -0.000011  -0.000058   0.000009  -0.000007   0.000002
    30  H    0.000001  -0.000229   0.000016   0.000007  -0.000007  -0.000008
    31  H    0.018552   0.001075   0.000488   0.000392  -0.004422   0.341279
    32  H   -0.006115   0.002124   0.000059  -0.000046   0.003030   0.048137
    33  H    0.014380  -0.001831  -0.000068   0.000039   0.001794   0.381498
              25         26         27         28         29         30
     1  N    0.018452   0.000045  -0.000120  -0.000046  -0.000008  -0.000016
     2  C   -0.098747   0.001318  -0.000116   0.000413   0.000058   0.000031
     3  C   -0.034221   0.000607  -0.000211   0.000035   0.000001   0.000058
     4  C    0.005222  -0.000012   0.000088   0.000019   0.000005  -0.000010
     5  C    0.003197  -0.000064  -0.000007  -0.000025  -0.000010   0.000024
     6  C   -0.489742   0.008756  -0.005034   0.002267   0.000554   0.000506
     7  C    0.474437  -0.000848   0.006894  -0.003642   0.000437  -0.001770
     8  N   -0.097997   0.002784   0.001561   0.000362   0.000252   0.000438
     9  C   -0.283457  -0.010241  -0.006090   0.007001  -0.001270  -0.000011
    10  C   -0.213747   0.010018  -0.000409   0.002122   0.000055   0.000539
    11  C    0.096777  -0.004442   0.004477  -0.000597  -0.000213  -0.000342
    12  O    0.022026   0.360760   0.330583  -0.037027   0.001764   0.001393
    13  H   -0.001923   0.000073  -0.000043   0.000009   0.000002   0.000004
    14  H    0.000090   0.000002   0.000036   0.000002   0.000000  -0.000002
    15  H    0.003967  -0.000073  -0.000150  -0.000080   0.000004  -0.000002
    16  H    0.000453   0.000009  -0.000017  -0.000001  -0.000001   0.000001
    17  H    0.000551   0.000006   0.000077   0.000090  -0.000003   0.000006
    18  H    0.000116  -0.000008  -0.000007  -0.000002  -0.000000  -0.000000
    19  H   -0.007479   0.000027   0.000045   0.000026   0.000003   0.000001
    20  H   -0.073760   0.002107   0.001901   0.002449  -0.000011  -0.000229
    21  H   -0.146289   0.005765   0.000971   0.001764  -0.000058   0.000016
    22  H    0.011212  -0.000202  -0.000015   0.000026   0.000009   0.000007
    23  H    0.013289  -0.000091  -0.000059  -0.000034  -0.000007  -0.000007
    24  C   -0.004391   0.000168   0.000297  -0.000012   0.000002  -0.000008
    25  H    1.777265  -0.016405  -0.003640  -0.017616   0.001958   0.002724
    26  H   -0.016405   0.603456  -0.108347   0.003447  -0.000931  -0.000872
    27  H   -0.003640  -0.108347   0.535109  -0.003372  -0.002696  -0.003038
    28  O   -0.017616   0.003447  -0.003372   7.668575   0.355765   0.354378
    29  H    0.001958  -0.000931  -0.002696   0.355765   0.565574  -0.073577
    30  H    0.002724  -0.000872  -0.003038   0.354378  -0.073577   0.564289
    31  H   -0.015277   0.000583  -0.000102   0.000018  -0.000001   0.000004
    32  H    0.003859  -0.000073   0.000040  -0.000004  -0.000001  -0.000001
    33  H    0.001193  -0.000102   0.000031  -0.000002   0.000001  -0.000005
              31         32         33
     1  N   -0.054760   0.136388  -0.341069
     2  C    0.089152  -0.101500  -0.015280
     3  C    0.053877  -0.048517  -0.000463
     4  C   -0.021330   0.044149   0.001022
     5  C   -0.130101   0.057079   0.079955
     6  C    0.188037   0.041091  -0.042029
     7  C   -0.073463   0.061837  -0.017297
     8  N   -0.001857  -0.006900   0.009641
     9  C   -0.037411   0.003844   0.007313
    10  C    0.041126  -0.002521  -0.010069
    11  C   -0.168411   0.043560   0.033382
    12  O    0.000336   0.000054  -0.000171
    13  H   -0.009383   0.017930   0.019768
    14  H   -0.001242   0.006532  -0.004458
    15  H   -0.000559  -0.004571   0.006967
    16  H    0.000037   0.001182   0.000611
    17  H   -0.001070   0.000413   0.000897
    18  H   -0.000320   0.010275  -0.003679
    19  H    0.018552  -0.006115   0.014380
    20  H    0.001075   0.002124  -0.001831
    21  H    0.000488   0.000059  -0.000068
    22  H    0.000392  -0.000046   0.000039
    23  H   -0.004422   0.003030   0.001794
    24  C    0.341279   0.048137   0.381498
    25  H   -0.015277   0.003859   0.001193
    26  H    0.000583  -0.000073  -0.000102
    27  H   -0.000102   0.000040   0.000031
    28  O    0.000018  -0.000004  -0.000002
    29  H   -0.000001  -0.000001   0.000001
    30  H    0.000004  -0.000001  -0.000005
    31  H    1.981954  -0.414896  -0.498594
    32  H   -0.414896   1.579935  -0.307252
    33  H   -0.498594  -0.307252   1.901452
 Mulliken charges:
               1
     1  N   -0.391016
     2  C    0.937002
     3  C    0.951042
     4  C    0.597395
     5  C    1.160221
     6  C    0.706092
     7  C    0.714876
     8  N    0.010141
     9  C    0.743749
    10  C    0.288649
    11  C    1.161455
    12  O   -0.436049
    13  H   -0.510002
    14  H   -0.261899
    15  H   -0.377766
    16  H   -0.367037
    17  H   -0.444920
    18  H   -0.459871
    19  H   -0.531243
    20  H   -0.967576
    21  H   -0.649353
    22  H   -0.558362
    23  H   -0.870976
    24  C    0.792296
    25  H    0.067902
    26  H    0.142777
    27  H    0.251363
    28  O   -0.336306
    29  H    0.152342
    30  H    0.155474
    31  H   -0.283708
    32  H   -0.169121
    33  H   -0.217572
 Sum of Mulliken charges =   1.00000
 Mulliken charges with hydrogens summed into heavy atoms:
               1
     1  N   -0.391016
     2  C    0.405759
     3  C    0.139085
     4  C   -0.042270
     5  C    0.190349
     6  C    0.706092
     7  C   -0.252700
     8  N    0.078043
     9  C    0.094396
    10  C   -0.269713
    11  C    0.290479
    12  O   -0.041909
    24  C    0.121895
    28  O   -0.028490
 APT charges:
               1
     1  N   -0.642671
     2  C    0.305602
     3  C    0.064654
     4  C    0.063044
     5  C    0.341199
     6  C   -0.010470
     7  C    0.068254
     8  N   -0.309130
     9  C    0.109721
    10  C   -0.107280
    11  C    0.135105
    12  O   -0.785942
    13  H   -0.020129
    14  H   -0.003007
    15  H   -0.020146
    16  H   -0.020783
    17  H   -0.010678
    18  H   -0.077243
    19  H   -0.074368
    20  H    0.143117
    21  H    0.107701
    22  H    0.088587
    23  H    0.082866
    24  C    0.330405
    25  H    0.596410
    26  H    0.273946
    27  H    0.475202
    28  O   -0.593404
    29  H    0.287940
    30  H    0.286097
    31  H   -0.022094
    32  H   -0.060201
    33  H   -0.002306
 Sum of APT charges =   1.00000
 APT charges with hydrogens summed into heavy atoms:
               1
     1  N   -0.642671
     2  C    0.231235
     3  C    0.033193
     4  C    0.039891
     5  C    0.243828
     6  C   -0.010470
     7  C    0.211370
     8  N    0.287280
     9  C    0.217421
    10  C   -0.018693
    11  C    0.217971
    12  O   -0.036793
    24  C    0.245804
    28  O   -0.019367
 Electronic spatial extent (au):  <R**2>=           4373.0685
 Charge=              1.0000 electrons
 Dipole moment (field-independent basis, Debye):
    X=             -6.9411    Y=              0.8450    Z=             -0.2627  Tot=              6.9973
 Quadrupole moment (field-independent basis, Debye-Ang):
   XX=            -17.2640   YY=            -55.1251   ZZ=            -76.9001
   XY=             12.4398   XZ=              1.2683   YZ=             -0.2900
 Traceless Quadrupole moment (field-independent basis, Debye-Ang):
   XX=             32.4991   YY=             -5.3620   ZZ=            -27.1371
   XY=             12.4398   XZ=              1.2683   YZ=             -0.2900
 Octapole moment (field-independent basis, Debye-Ang**2):
  XXX=           -320.5336  YYY=             -1.7787  ZZZ=             13.2694  XYY=            -76.2802
  XXY=           -109.6873  XXZ=            -32.2240  XZZ=            -29.0448  YZZ=            -17.9514
  YYZ=            -19.4733  XYZ=            -16.5360
 Hexadecapole moment (field-independent basis, Debye-Ang**3):
 XXXX=          -1577.1049 YYYY=           -984.2578 ZZZZ=           -580.0853 XXXY=            663.8722
 XXXZ=            231.9856 YYYX=            192.3076 YYYZ=              3.5451 ZZZX=            -21.8496
 ZZZY=             -2.8229 XXYY=           -424.1364 XXZZ=           -537.1849 YYZZ=           -306.0363
 XXYZ=            109.5461 YYXZ=             65.1184 ZZXY=             49.6277
 N-N= 9.139879642054D+02 E-N=-3.332397494671D+03  KE= 6.480358198680D+02
  Exact polarizability: 164.691 -13.803 150.000  -3.504  -5.994 119.118
 Approx polarizability: 170.564  -4.263 167.343  -4.090  -8.723 130.785
 Calling FoFJK, ICntrl=    100127 FMM=F ISym2X=0 I1Cent= 0 IOpClX= 0 NMat=1 NMatS=1 NMatT=0.
 Full mass-weighted force constant matrix:
 Low frequencies ---   -0.0009   -0.0006    0.0005    2.4162    2.8016    7.2693
 Low frequencies ---   15.4823   21.8022   30.2613
 Diagonal vibrational polarizability:
      203.8421065     140.4019708     154.5748065
 Harmonic frequencies (cm**-1), IR intensities (KM/Mole), Raman scattering
 activities (A**4/AMU), depolarization ratios for plane and unpolarized
 incident light, reduced masses (AMU), force constants (mDyne/A),
 and normal coordinates:
                      1                      2                      3
                      A                      A                      A
 Frequencies --     15.4633                21.6655                30.1911
 Red. masses --      4.5593                 3.4744                 3.0196
 Frc consts  --      0.0006                 0.0010                 0.0016
 IR Inten    --      0.9197                 0.2582                 0.5804
  Atom  AN      X      Y      Z        X      Y      Z        X      Y      Z
     1   7    -0.08  -0.04  -0.02    -0.03  -0.05  -0.02    -0.01  -0.02  -0.04
     2   6    -0.03  -0.02   0.00     0.02   0.01   0.08    -0.02  -0.04  -0.06
     3   6    -0.04  -0.01  -0.00     0.16   0.14   0.08    -0.08  -0.07  -0.07
     4   6    -0.12  -0.02  -0.03     0.10   0.13  -0.05     0.18  -0.05   0.01
     5   6    -0.12  -0.07  -0.04    -0.01  -0.01  -0.05     0.14   0.06   0.04
     6   6    -0.00   0.03   0.01     0.01   0.00   0.01     0.00  -0.01  -0.01
     7   6    -0.03   0.06   0.01     0.01   0.00  -0.01    -0.02  -0.01  -0.07
     8   7    -0.01   0.11   0.01     0.00   0.00  -0.06    -0.00   0.02  -0.03
     9   6     0.03   0.12   0.02     0.01  -0.01  -0.10     0.02   0.04   0.06
    10   6     0.06   0.08   0.03     0.01  -0.01  -0.09     0.04   0.04   0.12
    11   6     0.04   0.04   0.02     0.02  -0.01  -0.03     0.03   0.02   0.08
    12   8    -0.02   0.11  -0.01    -0.02   0.05  -0.01    -0.06   0.08  -0.07
    13   1    -0.17  -0.06  -0.06    -0.06  -0.03  -0.15     0.26   0.05   0.08
    14   1    -0.14  -0.05  -0.04     0.14   0.17  -0.03     0.28   0.06   0.07
    15   1    -0.15   0.03  -0.04     0.10   0.19  -0.16     0.28  -0.21  -0.02
    16   1    -0.01  -0.06   0.02     0.20   0.13   0.23    -0.19   0.09  -0.20
    17   1    -0.01   0.04   0.00     0.25   0.24   0.04    -0.21  -0.26  -0.02
    18   1    -0.11  -0.12  -0.04    -0.02  -0.06   0.05     0.10   0.21   0.09
    19   1    -0.00  -0.05   0.02    -0.02  -0.01   0.20     0.02  -0.05  -0.10
    20   1    -0.07   0.06  -0.00     0.00   0.01   0.01    -0.04  -0.03  -0.14
    21   1     0.04   0.15   0.02     0.01  -0.01  -0.14     0.03   0.06   0.09
    22   1     0.10   0.09   0.03     0.02  -0.02  -0.12     0.06   0.07   0.20
    23   1     0.06   0.01   0.03     0.02  -0.01  -0.02     0.04   0.02   0.14
    24   6    -0.06  -0.07  -0.01    -0.11  -0.17   0.01    -0.12   0.02  -0.02
    25   1    -0.03   0.13   0.00    -0.00   0.01  -0.06    -0.02   0.02  -0.07
    26   1    -0.08   0.18  -0.02    -0.00   0.11   0.01    -0.05   0.11  -0.06
    27   1     0.08  -0.01   0.00    -0.04   0.01   0.04    -0.05   0.03  -0.04
    28   8     0.29  -0.24   0.02    -0.11  -0.07   0.16    -0.07  -0.09   0.06
    29   1     0.32  -0.33  -0.14    -0.11  -0.08   0.16    -0.06  -0.10   0.02
    30   1     0.34  -0.26   0.18    -0.12  -0.08   0.22    -0.08  -0.10   0.14
    31   1    -0.03  -0.05   0.00    -0.13  -0.20   0.02    -0.20  -0.03  -0.08
    32   1    -0.04  -0.12  -0.01    -0.12  -0.20   0.11    -0.17   0.10   0.04
    33   1    -0.10  -0.08  -0.03    -0.16  -0.21  -0.08    -0.08   0.02  -0.01
                      4                      5                      6
                      A                      A                      A
 Frequencies --     35.6746                38.3602                96.4614
 Red. masses --      4.8135                 4.3309                 4.0720
 Frc consts  --      0.0036                 0.0038                 0.0223
 IR Inten    --      0.3800                 0.8947                 1.8185
  Atom  AN      X      Y      Z        X      Y      Z        X      Y      Z
     1   7     0.02  -0.03  -0.04    -0.10  -0.04  -0.04     0.02  -0.04   0.00
     2   6    -0.02  -0.02  -0.01    -0.05  -0.03  -0.02    -0.01  -0.02   0.03
     3   6     0.00   0.03  -0.02    -0.03  -0.02  -0.02    -0.12  -0.00  -0.01
     4   6     0.14   0.04  -0.03     0.11  -0.01   0.01     0.02   0.01  -0.02
     5   6     0.11   0.04  -0.02     0.01   0.01   0.03     0.06   0.03  -0.03
     6   6    -0.03  -0.05  -0.00    -0.03   0.01  -0.03     0.01   0.01   0.09
     7   6    -0.01  -0.05   0.10    -0.05   0.05   0.01     0.01   0.09   0.25
     8   7    -0.02  -0.06   0.11    -0.03   0.09   0.02     0.02   0.12   0.20
     9   6    -0.05  -0.09   0.02    -0.00   0.08  -0.02     0.03   0.07   0.01
    10   6    -0.08  -0.10  -0.09     0.02   0.04  -0.06     0.04   0.00  -0.14
    11   6    -0.07  -0.08  -0.10     0.00   0.00  -0.06     0.03  -0.03  -0.11
    12   8    -0.18   0.20   0.15     0.21  -0.21   0.14     0.00  -0.05  -0.12
    13   1     0.17   0.02  -0.04     0.05   0.00   0.02     0.14   0.01  -0.03
    14   1     0.20   0.12  -0.00     0.20   0.06   0.07     0.03   0.08  -0.04
    15   1     0.20  -0.04  -0.07     0.18  -0.10  -0.07     0.05  -0.07  -0.01
    16   1    -0.05   0.12  -0.03    -0.09   0.07  -0.05    -0.19   0.09  -0.12
    17   1    -0.04  -0.04  -0.00    -0.08  -0.11  -0.01    -0.23  -0.08   0.06
    18   1     0.08   0.12   0.02    -0.02   0.08   0.12     0.05   0.10  -0.05
    19   1    -0.04  -0.01   0.01    -0.04  -0.06   0.01     0.03  -0.04  -0.01
    20   1     0.02  -0.03   0.16    -0.08   0.05   0.03    -0.01   0.12   0.38
    21   1    -0.05  -0.11   0.04     0.01   0.12  -0.01     0.04   0.10  -0.04
    22   1    -0.10  -0.12  -0.16     0.04   0.04  -0.09     0.06  -0.03  -0.30
    23   1    -0.09  -0.09  -0.18     0.02  -0.03  -0.09     0.03  -0.09  -0.26
    24   6    -0.04  -0.05  -0.02    -0.23  -0.06  -0.01     0.06  -0.06  -0.00
    25   1    -0.01  -0.04   0.18    -0.02   0.09   0.06     0.00   0.13   0.18
    26   1    -0.25   0.20   0.12     0.23  -0.25   0.14    -0.15  -0.01  -0.17
    27   1    -0.08   0.15   0.11     0.15  -0.10   0.11     0.04  -0.01  -0.18
    28   8     0.20   0.11  -0.08     0.10   0.11  -0.01    -0.13  -0.10  -0.05
    29   1     0.25   0.11  -0.23     0.05   0.11   0.14    -0.10  -0.08  -0.10
    30   1     0.19   0.10   0.01     0.15   0.14  -0.19    -0.14  -0.10  -0.04
    31   1    -0.09  -0.10  -0.03    -0.29  -0.09  -0.06     0.05  -0.09   0.04
    32   1    -0.07   0.01   0.02    -0.26  -0.03   0.09     0.05  -0.02  -0.03
    33   1     0.00  -0.06  -0.05    -0.24  -0.07  -0.03     0.11  -0.07  -0.03
                      7                      8                      9
                      A                      A                      A
 Frequencies --    105.7318               120.8898               161.1962
 Red. masses --      1.0472                 3.4627                 3.5084
 Frc consts  --      0.0069                 0.0298                 0.0537
 IR Inten    --     37.7396                 1.5968                 3.8710
  Atom  AN      X      Y      Z        X      Y      Z        X      Y      Z
     1   7     0.00  -0.00   0.00    -0.03   0.05  -0.04     0.00  -0.05   0.03
     2   6    -0.00  -0.00   0.00     0.04   0.02  -0.08    -0.07  -0.06   0.01
     3   6    -0.00  -0.00   0.00     0.19  -0.02  -0.02     0.11   0.01   0.05
     4   6     0.00  -0.00  -0.00     0.03  -0.03   0.01     0.12   0.02   0.00
     5   6     0.00  -0.00  -0.00    -0.08  -0.05   0.03     0.03  -0.03   0.01
     6   6     0.00  -0.00   0.00     0.02   0.01  -0.13    -0.10  -0.09  -0.07
     7   6    -0.00   0.00   0.01     0.06   0.01   0.00    -0.16  -0.01  -0.08
     8   7    -0.00   0.00   0.00     0.06   0.00   0.16    -0.12   0.11  -0.02
     9   6     0.00   0.00  -0.00     0.02   0.01   0.22    -0.01   0.15   0.05
    10   6     0.00  -0.00  -0.00    -0.02   0.00   0.05     0.05   0.05   0.02
    11   6     0.00  -0.00  -0.00    -0.03  -0.00  -0.14    -0.01  -0.07  -0.05
    12   8    -0.03   0.04  -0.01    -0.03  -0.00  -0.03    -0.05  -0.04   0.07
    13   1     0.01  -0.00  -0.00    -0.20  -0.02   0.03     0.02  -0.04  -0.04
    14   1     0.00   0.00  -0.00     0.03  -0.12   0.06     0.17   0.05   0.04
    15   1     0.00  -0.00   0.00    -0.01   0.06  -0.04     0.14   0.02  -0.09
    16   1    -0.01   0.00  -0.00     0.28  -0.12   0.13     0.14   0.03   0.21
    17   1    -0.01  -0.00   0.00     0.34   0.07  -0.12     0.21   0.05  -0.03
    18   1     0.00   0.00  -0.00    -0.07  -0.15   0.09     0.02  -0.03   0.07
    19   1     0.00  -0.00   0.00    -0.01   0.04  -0.03    -0.17  -0.01   0.07
    20   1    -0.00   0.00   0.01     0.10   0.01  -0.01    -0.26  -0.02  -0.10
    21   1     0.00   0.00  -0.01     0.03   0.02   0.37     0.02   0.25   0.12
    22   1     0.00  -0.00  -0.01    -0.06   0.00   0.08     0.14   0.08   0.06
    23   1     0.00  -0.00  -0.00    -0.06  -0.01  -0.27     0.04  -0.14  -0.06
    24   6     0.01  -0.00   0.00    -0.12   0.08  -0.03     0.21   0.03  -0.02
    25   1    -0.00   0.00   0.00     0.07  -0.01   0.17    -0.14   0.15  -0.01
    26   1     0.13  -0.17   0.02    -0.05  -0.11  -0.06    -0.08  -0.02   0.06
    27   1    -0.01   0.01  -0.01     0.01   0.01  -0.08    -0.06  -0.02   0.06
    28   8    -0.01   0.00  -0.00    -0.06  -0.05  -0.03    -0.02  -0.02  -0.03
    29   1    -0.30  -0.35   0.50    -0.06  -0.06  -0.04    -0.01  -0.03  -0.07
    30   1     0.50   0.09  -0.47    -0.03  -0.05  -0.08    -0.01  -0.02  -0.03
    31   1     0.01  -0.01   0.00    -0.11   0.15  -0.11     0.26   0.02   0.07
    32   1     0.01  -0.00  -0.00    -0.11   0.03   0.03     0.22   0.07  -0.21
    33   1     0.01  -0.00   0.00    -0.22   0.11   0.01     0.34   0.05   0.04
                     10                     11                     12
                      A                      A                      A
 Frequencies --    199.2033               204.2525               216.2192
 Red. masses --      5.0371                 1.1043                 1.6333
 Frc consts  --      0.1178                 0.0271                 0.0450
 IR Inten    --     32.1113                57.7946                 0.1620
  Atom  AN      X      Y      Z        X      Y      Z        X      Y      Z
     1   7     0.03   0.03  -0.02     0.00   0.00  -0.00    -0.06  -0.00  -0.00
     2   6     0.06   0.03  -0.01     0.00   0.00  -0.01     0.00   0.00  -0.01
     3   6     0.00  -0.01  -0.03     0.01   0.00  -0.00    -0.03  -0.00  -0.02
     4   6    -0.03  -0.01  -0.00    -0.00  -0.00  -0.00     0.13   0.01  -0.02
     5   6     0.01   0.01  -0.01    -0.00   0.00  -0.00    -0.11  -0.08   0.02
     6   6     0.07   0.05   0.01    -0.00  -0.01  -0.00     0.02   0.04   0.02
     7   6     0.07   0.04  -0.02    -0.00  -0.01   0.00     0.03   0.02   0.03
     8   7     0.05   0.02  -0.05    -0.00  -0.01   0.00     0.01  -0.01   0.00
     9   6     0.07   0.02  -0.09    -0.00  -0.01   0.00    -0.02  -0.03  -0.03
    10   6     0.08   0.04  -0.02    -0.00  -0.00   0.01    -0.03   0.00   0.00
    11   6     0.09   0.06   0.05    -0.00  -0.00   0.01    -0.01   0.04   0.04
    12   8    -0.17  -0.08   0.33     0.04  -0.05  -0.00    -0.00  -0.00   0.01
    13   1     0.01   0.02   0.02    -0.00   0.00   0.00    -0.28  -0.07  -0.06
    14   1    -0.07  -0.04  -0.03    -0.01  -0.01  -0.00     0.30   0.12   0.12
    15   1    -0.06   0.01   0.05    -0.01   0.01   0.00     0.24  -0.08  -0.25
    16   1     0.01  -0.03  -0.07     0.01  -0.01   0.01    -0.11   0.11  -0.10
    17   1    -0.02  -0.00  -0.00     0.02   0.01  -0.01    -0.12  -0.11   0.02
    18   1     0.02   0.01  -0.04     0.00  -0.00  -0.00    -0.11  -0.23   0.18
    19   1     0.10   0.01  -0.04    -0.00   0.01  -0.00     0.04  -0.03  -0.01
    20   1     0.08   0.04  -0.01    -0.00  -0.01   0.01     0.06   0.03   0.05
    21   1     0.06   0.02  -0.14    -0.00  -0.01  -0.00    -0.03  -0.06  -0.08
    22   1     0.07   0.03  -0.02    -0.00  -0.00   0.02    -0.05  -0.00  -0.01
    23   1     0.10   0.08   0.12    -0.00  -0.00   0.01    -0.02   0.07   0.06
    24   6    -0.06   0.00   0.00    -0.01   0.01  -0.00     0.06   0.03  -0.03
    25   1     0.07   0.05   0.01    -0.01   0.00   0.00     0.02  -0.03   0.00
    26   1    -0.25  -0.00   0.31    -0.56   0.73  -0.11    -0.02   0.02   0.00
    27   1    -0.17  -0.06   0.33    -0.04   0.05  -0.01    -0.00  -0.00   0.01
    28   8    -0.14  -0.14  -0.18    -0.01   0.03   0.01    -0.00  -0.00  -0.01
    29   1    -0.10  -0.16  -0.33    -0.09  -0.23   0.01    -0.01  -0.01   0.02
    30   1    -0.05  -0.11  -0.33     0.28   0.04   0.00    -0.01  -0.00   0.01
    31   1    -0.06   0.03  -0.05    -0.01   0.01  -0.01     0.30   0.33  -0.06
    32   1    -0.05  -0.04   0.08    -0.01   0.02   0.00     0.22  -0.29  -0.13
    33   1    -0.13  -0.00  -0.01    -0.00   0.01   0.00    -0.24   0.09   0.07
                     13                     14                     15
                      A                      A                      A
 Frequencies --    222.1792               247.1236               275.8252
 Red. masses --      1.1777                 1.1933                 1.5503
 Frc consts  --      0.0343                 0.0429                 0.0695
 IR Inten    --    226.3390                 1.2877                19.7109
  Atom  AN      X      Y      Z        X      Y      Z        X      Y      Z
     1   7     0.00   0.00  -0.00    -0.03  -0.01  -0.00     0.00  -0.01  -0.02
     2   6     0.00   0.00  -0.00    -0.00  -0.01  -0.01    -0.01  -0.02  -0.02
     3   6     0.00  -0.00  -0.00     0.01  -0.00  -0.00     0.04   0.02  -0.01
     4   6    -0.00  -0.00   0.00     0.04  -0.00  -0.01    -0.01   0.01  -0.03
     5   6     0.00   0.00  -0.00    -0.07  -0.05   0.00     0.01  -0.00  -0.03
     6   6     0.00   0.00   0.00     0.01   0.02   0.01    -0.01  -0.05   0.03
     7   6     0.00   0.00   0.00     0.02   0.01   0.02    -0.03  -0.02   0.06
     8   7     0.00   0.00   0.00     0.01  -0.01   0.01    -0.02   0.01   0.02
     9   6     0.00   0.00   0.00    -0.00  -0.02  -0.02     0.02  -0.00  -0.05
    10   6     0.00   0.00  -0.00    -0.01  -0.00   0.00     0.05  -0.02   0.01
    11   6     0.00   0.00  -0.00     0.01   0.02   0.03     0.03  -0.04   0.07
    12   8    -0.02  -0.01   0.01     0.00   0.00   0.01    -0.03  -0.01  -0.02
    13   1     0.01   0.00   0.00    -0.17  -0.04  -0.04     0.01  -0.01  -0.04
    14   1    -0.01  -0.00  -0.00     0.10   0.03   0.04    -0.04  -0.01  -0.04
    15   1    -0.01   0.00   0.01     0.07  -0.01  -0.11    -0.04   0.05  -0.01
    16   1     0.01  -0.00   0.00    -0.01   0.03  -0.00     0.07  -0.01   0.06
    17   1     0.01   0.00  -0.00    -0.00  -0.02  -0.00     0.09   0.07  -0.04
    18   1     0.00   0.00  -0.00    -0.06  -0.14   0.07     0.01   0.00  -0.04
    19   1     0.00   0.00  -0.00     0.01  -0.03   0.00    -0.03  -0.01   0.00
    20   1     0.00   0.00   0.00     0.04   0.02   0.04    -0.06  -0.02   0.10
    21   1     0.00   0.00  -0.00    -0.01  -0.04  -0.06     0.02   0.01  -0.13
    22   1     0.01   0.00  -0.00    -0.02  -0.00  -0.01     0.08  -0.02  -0.01
    23   1     0.00  -0.00  -0.00     0.00   0.03   0.05     0.06  -0.07   0.11
    24   6    -0.00   0.00   0.00     0.01   0.05  -0.02    -0.05   0.11  -0.03
    25   1     0.00   0.00   0.00     0.02  -0.01   0.01    -0.03   0.03   0.01
    26   1    -0.03   0.01   0.01     0.00   0.00   0.01    -0.15   0.15  -0.04
    27   1    -0.03  -0.01   0.01     0.01  -0.00   0.01     0.15  -0.23   0.02
    28   8     0.04   0.01  -0.10    -0.00  -0.00  -0.00     0.04  -0.03   0.02
    29   1    -0.28  -0.13   0.64    -0.00   0.00   0.00     0.05   0.43   0.38
    30   1    -0.26  -0.10   0.64    -0.01  -0.00  -0.01    -0.34   0.01  -0.41
    31   1    -0.01  -0.00  -0.00    -0.28  -0.37   0.11    -0.04   0.20  -0.15
    32   1    -0.01   0.01   0.01    -0.20   0.54  -0.09    -0.04   0.09  -0.04
    33   1    -0.00  -0.00  -0.00     0.56  -0.01  -0.09    -0.12   0.17   0.08
                     16                     17                     18
                      A                      A                      A
 Frequencies --    278.1519               296.5712               307.5850
 Red. masses --      1.5526                 3.5587                 4.8917
 Frc consts  --      0.0708                 0.1844                 0.2727
 IR Inten    --     23.1618                 1.4772                15.4934
  Atom  AN      X      Y      Z        X      Y      Z        X      Y      Z
     1   7    -0.00  -0.01  -0.02     0.05  -0.01  -0.05    -0.02  -0.04  -0.02
     2   6    -0.01  -0.02  -0.01     0.03  -0.00  -0.07    -0.04  -0.03  -0.02
     3   6     0.03   0.02  -0.01     0.17  -0.12  -0.03     0.07  -0.03   0.00
     4   6    -0.01   0.02  -0.03     0.03  -0.14   0.01     0.00  -0.04  -0.00
     5   6     0.00  -0.01  -0.03     0.09  -0.03   0.00     0.04   0.00  -0.01
     6   6    -0.01  -0.05   0.04    -0.00   0.08   0.00    -0.04  -0.03   0.01
     7   6    -0.02  -0.03   0.06    -0.01   0.12   0.10    -0.04  -0.00   0.06
     8   7    -0.01   0.00   0.02    -0.05   0.06   0.04    -0.03   0.00   0.03
     9   6     0.02  -0.01  -0.05    -0.12   0.02  -0.11    -0.08  -0.03  -0.04
    10   6     0.05  -0.02   0.00    -0.11   0.06   0.02    -0.08  -0.01   0.02
    11   6     0.04  -0.05   0.06    -0.07   0.12   0.12    -0.07  -0.01   0.08
    12   8    -0.01  -0.02  -0.01    -0.08  -0.06  -0.04     0.31   0.25   0.09
    13   1     0.00  -0.01  -0.04     0.14  -0.00   0.10     0.13  -0.00   0.02
    14   1    -0.03   0.00  -0.04    -0.04  -0.23  -0.02    -0.04  -0.08  -0.03
    15   1    -0.03   0.05  -0.02    -0.03  -0.07   0.11    -0.03  -0.00   0.05
    16   1     0.06  -0.00   0.06     0.27  -0.25   0.12     0.13  -0.09   0.13
    17   1     0.07   0.07  -0.03     0.34  -0.03  -0.16     0.18   0.04  -0.07
    18   1     0.00  -0.00  -0.03     0.08   0.04  -0.04     0.03   0.10  -0.03
    19   1    -0.03  -0.01   0.01     0.04   0.00  -0.09    -0.05  -0.03   0.01
    20   1    -0.05  -0.02   0.09     0.00   0.14   0.18    -0.06   0.00   0.10
    21   1     0.03   0.01  -0.12    -0.15  -0.05  -0.26    -0.10  -0.08  -0.11
    22   1     0.08  -0.02  -0.02    -0.13   0.05  -0.00    -0.07  -0.01   0.01
    23   1     0.07  -0.07   0.11    -0.10   0.19   0.21    -0.08   0.02   0.14
    24   6    -0.05   0.11  -0.03     0.03  -0.09  -0.05     0.00   0.02  -0.04
    25   1    -0.03   0.02   0.01    -0.02   0.03   0.03    -0.02   0.00   0.06
    26   1     0.16  -0.27   0.01    -0.08  -0.13  -0.05     0.37   0.31   0.13
    27   1    -0.17   0.20  -0.06    -0.07  -0.04  -0.07     0.27   0.22   0.15
    28   8    -0.02   0.05   0.01     0.03   0.04   0.05    -0.11  -0.11  -0.16
    29   1    -0.01  -0.38  -0.35     0.05   0.02  -0.00    -0.15  -0.14  -0.09
    30   1     0.35   0.01   0.42     0.06   0.04   0.07    -0.16  -0.12  -0.09
    31   1    -0.05   0.20  -0.15     0.03  -0.10  -0.01     0.04   0.09  -0.07
    32   1    -0.05   0.11  -0.04     0.04  -0.12   0.00     0.02  -0.01  -0.08
    33   1    -0.11   0.18   0.09     0.00  -0.12  -0.11    -0.03   0.06   0.03
                     19                     20                     21
                      A                      A                      A
 Frequencies --    356.3556               415.0279               430.0498
 Red. masses --      2.7276                 2.8929                 3.1605
 Frc consts  --      0.2041                 0.2936                 0.3444
 IR Inten    --      9.7385                 1.9107                 0.8215
  Atom  AN      X      Y      Z        X      Y      Z        X      Y      Z
     1   7     0.26   0.13   0.01     0.00  -0.00  -0.00    -0.09   0.17  -0.02
     2   6     0.06   0.06  -0.03     0.00  -0.01  -0.00    -0.05   0.09  -0.11
     3   6    -0.02  -0.00  -0.04     0.00   0.00  -0.00     0.02   0.00  -0.09
     4   6     0.03  -0.00  -0.03     0.00  -0.00  -0.00     0.01   0.01   0.06
     5   6    -0.02  -0.10  -0.02     0.01  -0.00  -0.00    -0.10   0.15   0.09
     6   6    -0.03  -0.06   0.02     0.00  -0.00   0.00    -0.06  -0.08  -0.09
     7   6    -0.07  -0.02   0.01     0.02   0.05   0.20    -0.02  -0.07   0.07
     8   7    -0.06   0.04  -0.00    -0.02  -0.04  -0.17     0.00  -0.02   0.05
     9   6    -0.04   0.04  -0.01    -0.01  -0.01  -0.04     0.07  -0.04  -0.08
    10   6    -0.01  -0.00  -0.00     0.02   0.06   0.22     0.10  -0.02   0.04
    11   6    -0.03  -0.06   0.02    -0.02  -0.05  -0.18     0.05  -0.06   0.05
    12   8     0.03   0.02   0.00    -0.01  -0.01  -0.00     0.01   0.01   0.00
    13   1    -0.38  -0.06  -0.07     0.01  -0.00  -0.01    -0.11   0.18   0.17
    14   1     0.07   0.04  -0.00    -0.00  -0.00  -0.01     0.06  -0.07   0.16
    15   1     0.06  -0.02  -0.11    -0.00   0.00   0.00     0.02  -0.01   0.03
    16   1    -0.07   0.04  -0.14     0.00  -0.00  -0.00     0.05  -0.02  -0.05
    17   1    -0.10  -0.07   0.00     0.00  -0.00  -0.00     0.08  -0.03  -0.15
    18   1     0.07  -0.51  -0.01     0.00  -0.00  -0.01    -0.11   0.17   0.13
    19   1    -0.02   0.21  -0.15     0.01  -0.01   0.00    -0.11   0.17  -0.15
    20   1    -0.15  -0.02   0.02     0.05   0.11   0.42    -0.03  -0.04   0.18
    21   1    -0.03   0.07  -0.01    -0.02  -0.04  -0.15     0.08  -0.02  -0.19
    22   1     0.05   0.01  -0.01     0.05   0.12   0.45     0.12  -0.00   0.10
    23   1    -0.01  -0.08   0.03    -0.05  -0.11  -0.45     0.12  -0.11   0.17
    24   6    -0.04  -0.02   0.08    -0.01   0.00   0.00     0.04  -0.11  -0.02
    25   1    -0.07   0.05  -0.00    -0.03  -0.07  -0.26    -0.03   0.03   0.08
    26   1     0.05   0.01   0.01     0.18   0.13   0.10    -0.03  -0.06  -0.03
    27   1     0.02   0.02   0.01    -0.12  -0.07   0.15     0.05   0.03  -0.05
    28   8    -0.01  -0.01  -0.01     0.00   0.00  -0.01    -0.00  -0.00  -0.00
    29   1    -0.01  -0.01  -0.00     0.00  -0.00  -0.02    -0.00  -0.00   0.00
    30   1    -0.01  -0.01  -0.01     0.01   0.00  -0.01    -0.00  -0.00   0.01
    31   1    -0.18  -0.11  -0.02    -0.01   0.00  -0.01     0.12  -0.23   0.28
    32   1    -0.10  -0.02   0.41    -0.01   0.01   0.01     0.09  -0.23  -0.02
    33   1    -0.16  -0.09  -0.06    -0.01   0.01   0.01     0.08  -0.27  -0.30
                     22                     23                     24
                      A                      A                      A
 Frequencies --    510.1221               544.7684               583.7462
 Red. masses --      1.4027                 2.3655                 2.2700
 Frc consts  --      0.2151                 0.4136                 0.4558
 IR Inten    --     11.1047                20.1628                 0.9744
  Atom  AN      X      Y      Z        X      Y      Z        X      Y      Z
     1   7    -0.02   0.03  -0.03    -0.02   0.04  -0.08     0.02  -0.04  -0.09
     2   6     0.02   0.03  -0.01     0.06   0.06   0.01     0.03   0.01  -0.01
     3   6     0.02  -0.01  -0.01     0.03  -0.01   0.00    -0.02   0.08   0.03
     4   6     0.01  -0.02   0.01     0.01  -0.03   0.04    -0.00   0.08   0.17
     5   6    -0.02   0.02   0.02    -0.01   0.02   0.03     0.07  -0.09   0.09
     6   6     0.01   0.01   0.11     0.03   0.02   0.21     0.00  -0.03  -0.07
     7   6    -0.02  -0.01   0.01    -0.02  -0.02   0.03     0.00  -0.00  -0.02
     8   7    -0.02  -0.00  -0.01    -0.03  -0.02  -0.13     0.01   0.02   0.04
     9   6     0.01   0.02   0.07    -0.01   0.04   0.08    -0.02   0.00  -0.04
    10   6     0.00  -0.02  -0.06    -0.00  -0.02  -0.03    -0.01   0.01   0.02
    11   6     0.00  -0.02   0.02    -0.02  -0.05  -0.00    -0.01  -0.01  -0.00
    12   8    -0.02  -0.02  -0.04     0.02   0.02   0.05    -0.00  -0.00  -0.01
    13   1    -0.02   0.03   0.06    -0.04   0.04   0.10    -0.17  -0.08  -0.02
    14   1     0.01  -0.04   0.03    -0.01  -0.07   0.04    -0.29  -0.09  -0.06
    15   1     0.01  -0.02   0.01    -0.01  -0.03   0.07    -0.17   0.24   0.47
    16   1     0.04  -0.04   0.00     0.04  -0.05  -0.02    -0.14   0.22  -0.19
    17   1     0.05  -0.00  -0.03     0.03  -0.02  -0.00    -0.21  -0.15   0.12
    18   1    -0.02   0.03   0.03    -0.02   0.02   0.07     0.07  -0.26   0.28
    19   1     0.05   0.01  -0.02     0.12   0.01   0.01    -0.00  -0.00   0.09
    20   1    -0.05  -0.05  -0.13    -0.10  -0.05  -0.10    -0.01   0.01   0.04
    21   1     0.02   0.04   0.09     0.01   0.08   0.19    -0.03  -0.02  -0.07
    22   1     0.00  -0.05  -0.19     0.03  -0.04  -0.13     0.02   0.02   0.07
    23   1    -0.00  -0.05  -0.07    -0.04  -0.11  -0.21    -0.01   0.01   0.06
    24   6     0.00  -0.01  -0.05    -0.01  -0.01  -0.12    -0.00  -0.02  -0.16
    25   1    -0.05  -0.04  -0.18    -0.02   0.01  -0.04     0.01   0.02   0.04
    26   1     0.50   0.41   0.24    -0.44  -0.35  -0.21     0.06   0.05   0.03
    27   1    -0.36  -0.22   0.41     0.32   0.20  -0.36    -0.05  -0.03   0.05
    28   8     0.01   0.00  -0.01    -0.00  -0.00   0.01     0.00   0.00  -0.00
    29   1     0.01  -0.01  -0.03    -0.01   0.01   0.02     0.00  -0.00  -0.00
    30   1     0.01   0.00  -0.02    -0.01  -0.00   0.01     0.00   0.00  -0.00
    31   1     0.02  -0.02  -0.00     0.02  -0.02  -0.05     0.02  -0.01  -0.15
    32   1     0.01  -0.02  -0.06     0.01  -0.02  -0.15     0.01  -0.01  -0.20
    33   1     0.01  -0.03  -0.09     0.03  -0.03  -0.16     0.02  -0.01  -0.13
                     25                     26                     27
                      A                      A                      A
[...]
 2681,0.00004573,-0.00003409,-0.00000146,-0.00849892,-0.00173475,-0.008
 68951,-0.00001271,0.00002662,-0.00001573,-0.00001127,0.00001818,0.0000
 0741,0.00002018,-0.00000555,-0.00000032,-0.00001532,0.00001892,0.00001
 708,0.00000102,-0.00000424,-0.00002877,-0.00002638,0.00001078,0.000011
 62,-0.00003322,0.00003819,-0.00000244,0.00006361,-0.00007260,-0.000028
 75,0.00005698,0.00012845,0.00002496,-0.00000993,0.00000312,0.00000073,
 -0.00000724,-0.00000266,0.00000226,0.00003599,-0.00001245,0.00002954,0
 .00177024,0.00107354,-0.00066174,-0.00093816,-0.00099944,0.00002421,0.
 00555953,-0.00857840,0.00090650,-0.13895513,0.62455523,-0.00013393,0.0
 0005094,0.00008213,0.00006347,-0.00006873,0.00004051,-0.00002166,0.000
 02586,-0.00008007,-0.00005764,-0.00003380,0.00001825,0.00007497,-0.000
 05779,-0.00007757,-0.00004708,-0.00012650,0.00001459,0.00031291,-0.000
 26765,0.00001086,-0.00132535,-0.00087525,0.00060066,-0.00020067,0.0004
 0208,-0.00009672,-0.00009030,-0.00009800,0.00004852,-0.00003982,0.0000
 3244,-0.00001250,-0.00900569,-0.00874872,-0.00582640,-0.00000282,0.000
 00645,-0.00000712,-0.00001798,0.00001794,0.00000898,0.00002310,0.00001
 414,-0.00002230,-0.00001100,0.00001261,0.00002088,0.00000956,-0.000026
 36,-0.00000818,-0.00002844,0.00000660,0.00001869,-0.00003388,0.0000178
 6,0.00000378,0.00013446,-0.00001921,-0.00007051,0.00003233,0.00006986,
 -0.00012453,-0.00003942,-0.00002341,-0.00001647,-0.00000848,-0.0000088
 7,-0.00000905,0.00004707,0.00000027,-0.00002561,0.00292465,0.00190472,
 -0.00146957,-0.00019661,0.00000036,0.00089410,0.00004489,0.00114690,-0
 .00613895,0.19018414,0.04099585,0.09718939,0.00004016,-0.00000058,0.00
 002052,-0.00002352,0.00000827,-0.00001987,-0.00000298,-0.00000276,0.00
 000341,-0.00001494,-0.00000502,-0.00000445,-0.00001753,0.00000514,0.00
 000566,-0.00000956,0.00002831,-0.00000246,-0.00005235,0.00002452,-0.00
 000957,0.00009878,0.00007679,-0.00002085,0.00000454,-0.00006069,0.0000
 1649,0.00001978,-0.00000569,0.00000466,-0.00000144,-0.00001414,0.00000
 317,0.00080090,0.00055229,0.00031061,-0.00000439,-0.00000303,-0.000000
 46,0.00000387,-0.00000153,-0.00000025,0.00000541,0.00000741,0.00000238
 ,0.00000755,0.00000136,0.00000082,-0.00000288,-0.00000655,0.00000764,0
 .00001223,0.00000481,0.00000398,0.00001023,-0.00000109,0.00000359,-0.0
 0002121,0.00000157,-0.00001226,0.00000178,-0.00003719,-0.00002425,0.00
 000346,-0.00000410,-0.00000456,0.00000194,-0.00000191,-0.00000204,-0.0
 0001488,-0.00000768,-0.00002681,-0.00020434,-0.00011594,-0.00000280,-0
 .00002171,-0.00021968,-0.00016055,-0.00182573,-0.00015117,-0.00027280,
 -0.44381158,0.14633559,-0.16220569,0.44799657,-0.00000216,-0.00002922,
 0.00000677,-0.00000998,0.00002219,-0.00002081,-0.00000138,0.00000127,0
 .00000538,0.00001255,0.00000913,0.00000113,-0.00000032,0.00001109,0.00
 000547,-0.00004936,-0.00007541,0.00002454,0.00010127,0.00001140,-0.000
 02078,-0.00018153,-0.00007233,0.00005961,-0.00014639,0.00005204,0.0000
 1126,0.00008205,-0.00003123,0.00000200,-0.00003960,0.00004155,-0.00000
 433,-0.00094818,-0.00263948,-0.00218108,0.00000367,-0.00000554,0.00000
 406,-0.00000021,-0.00000241,-0.00000111,-0.00000453,-0.00000065,-0.000
 00295,0.,-0.00000411,-0.00000245,0.00000285,0.00000115,0.00000451,0.00
 000040,-0.00000245,-0.00000213,-0.00000046,-0.00000785,0.00000012,0.00
 002526,0.00001061,0.00000419,-0.00003913,-0.00002425,-0.00004431,-0.00
 001730,-0.00001029,-0.00000155,0.00000189,-0.00000079,-0.00000164,0.00
 000186,0.00000362,-0.00000271,0.00031591,0.00031758,-0.00017917,-0.000
 24100,-0.00004889,-0.00011867,0.00039677,0.00471660,0.00372235,0.09480
 830,-0.08326736,0.02434748,-0.13888248,0.09350261,0.00001543,0.0000015
 6,-0.00002549,-0.00000261,-0.00000382,0.00000411,0.00000584,-0.0000045
 8,0.00001316,0.00000591,0.00000274,-0.00000433,-0.00000994,0.00000392,
 0.00001116,0.00000412,0.00002459,-0.00000628,-0.00002765,0.00000165,0.
 00000842,0.00006666,0.00005604,-0.00002528,0.00000220,-0.00001305,0.00
 001233,0.00000759,0.00000105,-0.00001497,0.00001147,-0.00000565,0.0000
 0422,0.00002045,-0.00160030,-0.00119968,-0.00000064,0.00000216,-0.0000
 0060,0.00000444,-0.00000209,-0.00000082,-0.00000430,-0.00000355,0.0000
 0616,0.00000120,-0.00000033,-0.00000248,-0.00000361,0.00000573,-0.0000
 0103,0.00000230,-0.00000073,-0.00000273,0.00000221,0.00000038,-0.00000
 122,-0.00001613,-0.00000295,0.00000875,-0.00001451,-0.00000708,0.00003
 732,0.00000328,0.00000491,0.00000906,0.00000262,0.00000139,0.00000395,
 -0.00000543,0.00000050,0.00001498,-0.00018541,-0.00018305,0.00006171,-
 0.00050948,-0.00000761,-0.00017389,-0.00105835,0.00305828,0.00114428,-
 0.16798876,0.04537320,-0.06535730,0.16439679,-0.04217790,0.06361174,0.
 00003656,0.00005400,0.00002753,-0.00000370,-0.00004553,0.00001722,-0.0
 0000026,-0.00000219,-0.00001322,-0.00005709,-0.00002900,-0.00000760,-0
 .00001534,-0.00002452,-0.00001082,0.00001040,0.00008338,-0.00002401,-0
 .00001442,-0.00012920,0.00004144,-0.00011958,-0.00012975,0.00007013,0.
 00004314,0.00006169,-0.00002444,-0.00007479,-0.00000247,0.00000769,0.0
 0002754,-0.00004858,0.00000689,-0.00188395,-0.00048656,-0.00206909,-0.
 00001629,0.00000845,-0.00000988,0.00000764,0.00000659,0.00000332,0.000
 01683,0.00001093,0.00001161,0.00000684,0.00001290,0.00000794,-0.000006
 22,-0.00001112,0.00000093,0.00001234,0.00001374,0.00001209,0.00000422,
 0.00001619,0.00000434,-0.00003379,-0.00003934,-0.00004669,0.00001457,0
 .00002294,-0.00000389,-0.00000137,-0.00000181,-0.00000181,-0.00000057,
 -0.00000054,-0.00000177,-0.00001244,-0.00001543,-0.00003727,0.00040478
 ,0.00012894,-0.00016830,-0.00012180,-0.00018050,-0.00013545,0.00318943
 ,-0.00022326,0.00400686,-0.04245661,-0.00466606,-0.02037441,-0.0029866
 2,0.04480683,0.00527581,0.04402868,0.00003950,-0.00004011,0.00001405,-
 0.00003134,0.00003868,-0.00003589,-0.00000374,-0.00000277,0.00001214,0
 .00000811,0.00000508,-0.00000608,-0.00001617,0.00003478,0.00001553,-0.
 00003488,0.00000586,0.00001059,-0.00004985,0.00005487,-0.00001883,0.00
 015107,0.00011551,-0.00003864,-0.00000170,-0.00009205,0.00001771,0.000
 04896,0.00000521,-0.00000596,-0.00000831,0.00000067,0.00000134,0.00101
 636,0.00088224,0.00061073,0.00000309,-0.00001076,0.00000688,0.00000614
 ,-0.00000315,-0.00000208,-0.00000673,0.00000927,-0.00000069,0.00000600
 ,-0.00000536,-0.00000317,-0.00000001,-0.00000426,0.00001129,0.00000999
 ,-0.00000360,-0.00000127,0.00000989,-0.00001199,0.00000161,-0.00003123
 ,0.00002386,-0.00001073,-0.00000863,-0.00002197,-0.00000696,0.00000084
 ,-0.00000304,-0.00000224,0.00000078,0.00000197,-0.00000160,-0.00001119
 ,0.00000421,-0.00001772,-0.00032072,-0.00022256,0.00005526,-0.00018280
 ,-0.00005242,-0.00018466,-0.00111456,-0.00194419,-0.00076601,0.0472389
 8,-0.53050338,-0.05872111,-0.00752643,-0.01247537,-0.00452250,-0.03920
 300,0.54422201,0.00001684,0.00000816,-0.00004468,0.00000276,-0.0000122
 9,0.00001136,0.00000441,-0.00000340,0.00001323,0.00002043,0.00001208,0
 .00000006,-0.00001609,-0.00000025,0.00001892,-0.00000231,0.00002662,-0
 .00000868,0.00000238,-0.00002540,0.00001667,0.00001901,-0.00000541,-0.
 00000057,-0.00000658,0.00000134,-0.00000061,-0.00000041,0.00000215,-0.
 00000328,0.00000968,-0.00000261,-0.00000104,-0.00190101,-0.00014343,-0
 .00201156,-0.00000090,0.00000499,0.00000173,0.00000537,-0.00000261,-0.
 00000223,-0.00000882,-0.00000818,0.00000963,-0.00000076,-0.00000258,-0
 .00000404,-0.00000250,0.00001198,-0.00000373,0.00000183,-0.00000109,-0
 .00000702,0.00000105,0.00000231,-0.00000281,-0.00001906,-0.00001329,0.
 00002623,-0.00000292,0.00000110,0.00001642,0.00000087,0.00000209,0.000
 00590,0.00000172,0.00000275,0.00000419,-0.00000433,-0.00000626,0.00002
 762,-0.00009575,-0.00004034,0.00000828,-0.00012407,-0.00056550,-0.0000
 9802,0.00326372,-0.00111952,0.00278862,-0.01258399,-0.07827405,-0.0196
 4841,-0.00200730,0.01656186,0.00187144,0.01343357,0.06359036,0.0170293
 9,0.00750793,-0.00706259,-0.00317508,0.00067092,0.00102093,0.00000834,
 -0.00012017,-0.00013562,0.00012418,0.00054897,-0.00002784,-0.00039550,
 0.00039003,-0.00045562,-0.00125044,0.00001240,-0.00006612,-0.00012480,
 0.00004889,0.00021236,-0.00004819,-0.00002176,-0.00011448,0.00001499,0
 .00002483,0.00002202,0.00001459,-0.00001132,-0.00006579,-0.00005567,0.
 00010603,-0.00011345,0.00009311,0.00000458,-0.00002587,-0.00000456,-0.
 00006415,0.00006751,0.00000559,-0.00004527,-0.00000636,-0.00012582,0.0
 0002800,-0.00006109,0.00013445,-0.00000117,0.00000154,-0.00001176,0.00
 003694,-0.00004194,-0.00000122,0.00047289,-0.00019034,-0.00043057,-0.0
 0059804,-0.00012972,-0.00016598,0.00000736,-0.00015552,-0.00003768,0.0
 0000557,-0.00001227,0.00000025,0.00000530,-0.00000617,-0.00000398,-0.0
 0001559,-0.00000653,0.00004981,-0.17923009,0.11236321,0.07487574,0.000
 01576,0.00004027,0.00001297,-0.00000548,0.00000962,0.00000629,-0.00000
 128,0.00000917,0.00000779,0.00000411,-0.00000794,-0.00000683,-0.000001
 77,0.00000251,0.00000186,-0.00000585,0.00000266,0.00000193,0.18789174,
 0.00157968,-0.00314323,-0.00184379,-0.00084639,-0.00021424,0.00070734,
 -0.00006721,-0.00007096,-0.00029188,0.00050526,0.00008451,0.00007530,-
 0.00077202,0.00119391,-0.00085541,0.00035706,-0.00010665,-0.00010765,0
 .00026325,0.00021208,-0.00003615,-0.00036410,0.00019932,0.00004836,-0.
 00010143,-0.00024426,0.00003033,0.00028826,0.00003616,0.00001903,-0.00
 034760,0.00036097,-0.00006635,0.00005566,-0.00001248,0.00009287,-0.000
 04558,0.00041356,0.00017252,-0.00001347,0.00008662,-0.00014451,-0.0000
 4265,0.00000699,0.00003490,0.00000781,0.00002446,-0.00001365,-0.000013
 93,0.00004580,-0.00004821,0.00015242,-0.00008826,0.00001514,-0.0001250
 0,0.00014750,0.00015454,-0.00006336,-0.00007927,-0.00028777,-0.0000048
 5,-0.00000615,0.00000112,-0.00000740,0.00001217,0.,0.00000499,-0.00003
 691,0.00000902,0.11017207,-0.14098262,-0.06337345,0.00000367,0.0000600
 1,-0.00008199,-0.00005777,0.00000479,-0.00002939,-0.00003273,-0.000031
 41,-0.00005258,0.00001153,0.00001374,0.00003672,-0.00000049,0.00000233
 ,-0.00000738,0.00000364,-0.00000314,-0.00001128,-0.12031298,0.14852702
 ,0.02322757,-0.02492400,-0.01927445,0.00110365,-0.00124839,0.00111326,
 0.00005335,-0.00037237,0.00010941,0.00134364,-0.00132874,-0.00085049,-
 0.00246114,0.00288436,-0.00512132,-0.00029555,0.00006916,-0.00027021,-
 0.00029008,0.00014051,-0.00023484,-0.00014355,0.00031130,-0.00000895,-
 0.00010120,-0.00034184,0.00004076,0.00031814,0.00008006,-0.00001366,-0
 .00026463,0.00042755,-0.00012227,0.00010496,0.00008070,-0.00000474,-0.
 00015267,-0.00021091,0.00014129,-0.00023432,0.00013414,-0.00063054,-0.
 00005878,-0.00001876,-0.00007781,-0.00002171,0.00005674,0.00005763,-0.
 00006281,0.00011022,0.00000425,0.00017999,0.00009784,-0.00002659,0.000
 10852,0.00041978,-0.00018297,0.00008105,-0.00022073,-0.00018168,-0.000
 01383,-0.00000459,-0.00000995,0.00000281,0.00000200,-0.00000622,0.0000
 0985,-0.00003393,-0.00000521,0.06912470,-0.05819374,-0.08773171,-0.000
 18119,-0.00010849,0.00003711,-0.00000367,-0.00000301,0.00001536,-0.000
 02681,-0.00003510,-0.00004671,0.00001553,0.00002763,0.00002143,-0.0000
 0366,-0.00000365,-0.00000113,0.00000445,-0.00000812,-0.00000150,-0.078
 77123,0.07201559,0.10452647,-0.00517949,-0.00254229,-0.01223047,0.0012
 8697,-0.00136551,0.00148401,0.00007482,0.00010508,0.00019678,0.0002557
 6,-0.00001315,0.00030929,0.00240795,0.00125977,0.00085543,-0.00024809,
 0.00066099,0.00014383,-0.00004244,-0.00015150,0.00017380,0.00017196,-0
 .00009562,-0.00001744,0.00004586,0.00019829,-0.00009234,-0.00022759,0.
 00004043,0.00003770,-0.00002647,-0.00036277,0.00007444,-0.00011657,-0.
 00003466,-0.00001282,-0.00016258,-0.00020871,0.00002472,0.00000121,0.0
 0003226,-0.00011546,-0.00001492,0.00000575,0.00022462,0.00006598,0.000
 01434,-0.00006512,0.00001856,0.00009399,0.00003631,0.00041272,-0.00134
 191,-0.00136620,-0.00038536,0.00151934,-0.00114886,0.00043759,-0.00011
 111,0.00009684,0.00000704,0.00001152,-0.00000940,-0.00002443,-0.000002
 52,-0.00001689,0.00001914,0.00001664,-0.00003057,-0.24602039,-0.088212
 26,-0.02204440,0.00014230,0.00006672,0.00000782,0.00002891,-0.00000946
 ,-0.00001076,0.00004731,0.00002737,0.00004991,-0.00004084,-0.00001640,
 -0.00002271,0.00001174,-0.00000224,0.00000160,0.00001394,0.00000650,0.
 00000150,-0.01876173,-0.00984098,-0.00181882,0.26622343,-0.00401648,-0
 .00142179,-0.00634414,0.00283191,0.00193551,0.00095402,-0.00002171,-0.
 00001374,0.00009179,0.00026922,0.00007395,-0.00010919,-0.00241696,0.00
 073482,0.00075113,-0.00011801,-0.00024563,-0.00022181,0.00003069,-0.00
 004408,0.00003444,-0.00020701,0.00014553,-0.00001516,-0.00005495,-0.00
 012152,0.00000701,0.00011304,0.00003612,0.00001561,-0.00013079,0.00015
 267,-0.00001246,-0.00004130,-0.00000265,0.00001312,-0.00002946,-0.0001
 3958,0.00012409,0.00001437,0.00002794,-0.00011214,0.00013515,-0.000092
 13,0.00014678,-0.00000954,0.00000261,-0.00002970,0.00003012,-0.0000057
 5,-0.00004442,0.00070659,-0.00024448,-0.00013231,-0.00072803,0.0003774
 4,-0.00095460,0.00011074,-0.00008199,-0.00006101,-0.00000290,0.0000059
 3,0.00000998,-0.00000749,0.00000534,0.00000202,0.00001474,-0.00002301,
 -0.00000274,-0.08753816,-0.08973878,-0.00929392,0.00003780,0.00003309,
 -0.00003286,0.00000284,-0.00000980,-0.00000894,0.00001704,0.00000176,0
 .00001247,-0.00001629,-0.00000130,-0.00000616,0.00000516,-0.00000144,0
 .00000046,0.00000897,0.00000142,0.00000140,0.01754061,0.00785642,0.002
 48958,0.09940809,0.09061143,-0.03445140,-0.01537908,-0.02274136,-0.001
 87260,-0.00644493,0.00234950,0.00017610,-0.00016362,0.00052612,0.00036
 254,0.00004634,0.00009030,-0.00478163,0.00231275,0.00231329,0.00029426
 ,0.00064868,0.00013210,-0.00005805,0.00003294,0.00003103,-0.00009932,0
 .00017556,0.00002099,-0.00004305,0.00001568,-0.00004131,-0.00001310,0.
 00005290,-0.00002083,-0.00015977,0.00004030,0.00002936,0.00000317,-0.0
 0002012,0.00005812,0.00045957,-0.00014121,-0.00018376,0.00017193,0.000
 11386,-0.00011163,0.00019761,0.00002671,0.00019042,0.00004478,0.000045
 03,-0.00006895,0.00000256,0.00002776,0.00005937,0.00192424,0.00035239,
 0.00053982,0.00132485,0.00155765,0.00082779,0.00029249,-0.00008508,-0.
 00023831,-0.00000622,0.00000929,-0.00001622,-0.00001801,0.00000248,-0.
 00000893,0.00001690,0.00000424,0.00000356,-0.02196946,-0.00948899,-0.0
 5076195,0.00005839,0.00004257,-0.00004253,-0.00003210,0.00000558,-0.00
 002009,-0.00000917,-0.00001030,-0.00002098,0.00000076,0.00000141,0.000
 01857,0.00000081,0.00000165,-0.00000437,0.00000254,0.00000182,-0.00000
 847,0.01059229,0.00580691,0.00208475,0.03485073,0.01595361,0.06269489,
 -0.00084245,0.00797022,-0.00411554,0.00061944,-0.00081860,-0.00135125,
 0.00005024,0.00047660,-0.00012328,-0.00015138,0.00007524,0.00014393,0.
 00032442,-0.00047268,0.00043044,0.00029591,-0.00002978,0.00009006,0.00
 012282,0.00009199,0.00003803,-0.00003934,-0.00010450,0.00000043,0.0000
 1650,0.00005936,-0.00001498,-0.00004770,-0.00000169,0.00000835,-0.0000
 2430,-0.00012150,0.00005203,0.00000970,-0.00005314,0.00004957,0.000238
 84,-0.00002211,0.00003260,-0.00000115,-0.00002089,0.00002766,-0.000031
 68,0.00000757,-0.00004848,0.00003723,-0.00000990,-0.00013066,0.0000577
 4,-0.00001046,-0.00005029,-0.00015811,-0.00029885,-0.00008143,0.000045
 14,0.00041164,-0.00006928,-0.00001949,0.00011019,-0.00008088,0.0000046
 9,0.00000075,0.00000788,-0.00000960,0.00000029,-0.00000456,-0.00000468
 ,-0.00000619,0.00000208,-0.04785517,-0.01096429,0.00516531,0.00006324,
 0.00007779,-0.00004669,-0.00003341,0.00001644,-0.00001568,-0.00001798,
 -0.00000236,-0.00001847,0.00001107,-0.00000529,0.00001887,-0.00000152,
 0.00000413,-0.00000493,-0.00000623,0.00000243,-0.00001025,0.00110141,0
 .01965463,-0.01077256,-0.00042230,-0.02593799,0.01273734,0.04666810,0.
 00073912,0.00661717,-0.00327350,-0.00031132,0.00094082,-0.00109753,0.0
 0014643,0.00017149,-0.00042849,-0.00009895,0.00026330,0.00022997,0.000
 38888,0.00112168,-0.00073350,-0.00021528,0.00013139,-0.00004177,-0.000
 02895,-0.00010580,-0.00003161,0.00009488,0.00006981,-0.00002051,-0.000
 00160,-0.00006711,0.00000138,0.00003804,0.00003473,0.00000400,-0.00002
 232,0.00006490,-0.00003118,0.00004425,0.00006919,-0.00004800,-0.000270
 00,0.00009392,0.00048184,-0.00001343,0.00000705,0.00000911,0.00000324,
 -0.00000651,-0.00000305,0.00000681,0.00002454,-0.00003104,0.00000269,0
 .00011726,-0.00004350,-0.00019803,-0.00030036,-0.00000153,0.00028445,0
 .00036560,-0.00034399,0.00000687,-0.00008108,0.00011373,-0.00000502,0.
 00000022,-0.00000136,0.00000447,0.00000064,-0.00000285,-0.00000277,0.0
 0001860,-0.00002535,-0.00896438,-0.26906720,0.11162104,-0.00012250,-0.
 00010892,0.00005999,0.00002333,-0.00001216,0.00002342,-0.00000331,-0.0
 0001099,-0.00000385,0.00000701,0.00001358,-0.00000753,-0.00000309,-0.0
 0000409,0.00000401,-0.00000031,-0.00000551,0.00000830,-0.00229417,-0.0
 1426878,0.00770923,0.00084403,-0.00981431,0.00445519,0.00992095,0.2837
 2692,-0.00248409,0.03210832,-0.02090274,0.00039014,-0.00277221,-0.0055
 0213,-0.00040877,0.00138960,-0.00080411,-0.00029990,0.00018314,0.00020
 643,-0.00003997,0.00193928,0.00111734,0.00053903,-0.00018022,-0.000119
 82,-0.00006777,0.00005297,0.00001022,-0.00013747,0.00001209,0.00002689
 ,-0.00006004,-0.00003348,-0.00000159,0.00005717,0.00004418,0.00000976,
 -0.00024204,0.00014850,0.00000756,-0.00002137,-0.00004200,0.00001484,0
 .00006648,-0.00071701,-0.00020528,0.00000691,-0.00008271,0.00006502,0.
 00000166,-0.00003424,0.00002681,0.00005137,-0.00002142,-0.00025220,0.0
 0021896,-0.00011228,-0.00046610,0.00022977,-0.00021127,-0.00013690,0.0
 0012411,-0.00005343,0.00001467,0.00006251,0.00003401,-0.00005391,-0.00
 000046,-0.00000249,-0.00000574,-0.00001844,0.00000410,-0.00000834,0.00
 001260,-0.00002760,-0.00000658,0.00474568,0.10203920,-0.09901958,0.000
 05640,0.00006691,-0.00003122,-0.00001055,0.00000434,-0.00000342,0.0000
 0036,0.00001283,0.00000737,0.00000062,-0.00001166,-0.00000011,0.000000
 11,0.00000288,-0.00000117,-0.00000571,0.00000495,-0.00000305,-0.001334
 87,-0.01196825,0.00665127,0.00043294,-0.00322593,0.00231974,-0.0018653
 4,-0.11855110,0.11704606\\-0.00000757,0.00002109,-0.00001541,-0.000006
 49,-0.00004495,0.00002564,0.00002953,-0.00000751,-0.00002673,-0.000028
 83,0.00001089,0.00001523,0.00001910,0.00001689,0.00000754,-0.00000847,
 -0.00000696,0.00001476,-0.00000266,0.00000161,-0.00000167,-0.00000324,
 0.00000694,-0.00000288,-0.00000232,-0.00000548,0.00000263,0.00000480,-
 0.00000055,-0.00000001,-0.00000189,0.00000317,-0.00000214,-0.00000013,
 -0.00000088,-0.00000048,0.00000318,-0.00000032,-0.00000305,-0.00000402
 ,0.00000101,-0.00000556,-0.00000343,-0.00000066,-0.00000040,0.00000104
 ,-0.00000099,-0.00000154,0.00000961,0.00000413,-0.00000429,0.00000332,
 0.00000163,0.00000097,-0.00000431,0.00000302,-0.00000100,0.00000159,0.
 00000187,0.00000299,-0.00000037,0.00000009,0.00000145,-0.00000022,0.00
 000064,0.00000250,0.00000020,0.00000063,0.00000079,0.00000226,0.000001
 53,-0.00000104,-0.00000046,-0.00000067,-0.00000125,-0.00000033,-0.0000
 0162,-0.00000057,0.00000026,-0.00000056,-0.00000088,0.00000076,-0.0000
 0062,-0.00000141,-0.00000010,0.00000001,-0.00000166,0.00000038,0.00000
 020,-0.00000201,-0.00000279,0.00000138,0.00000070,0.00000261,0.0000016
 7,-0.00000298,-0.00000106,-0.00000665,0.00000173\\\@


 TERENCE, THIS IS STUPID STUFF:
 YOU EAT YOUR VICTUALS FAST ENOUGH;
 THERE CAN'T BE MUCH AMISS, 'TIS CLEAR
 TO SEE THE RATE YOU DRINK YOUR BEER.
 BUT OH, GOOD LORD, THE VERSE YOU MAKE,
 IT GIVES A CHAP THE BELLY-ACHE.
 THE COW, THE OLD COW, SHE IS DEAD;
 IT SLEEPS WELL, THE HORNED HEAD:
 WE POOR LADS, 'TIS OUR TURN NOW
 TO HEAR SUCH TUNES AS KILLED THE COW.
 PRETTY FRIENDSHIP 'TIS TO RHYME
 YOUR FRIENDS TO DEATH BEFORE THEIR TIME.
 MOPING, MELANCHOLY MAD:
 COME PIPE A TUNE TO DANCE TO, LAD.

     -- A. E. HOUSMAN
 Job cpu time:       0 days 17 hours  9 minutes 35.2 seconds.
 Elapsed time:       0 days  0 hours 36 minutes 50.7 seconds.
 File lengths (MBytes):  RWF=    900 Int=      0 D2E=      0 Chk=     24 Scr=      8
 Normal termination of Gaussian 16 at Wed Aug 26 20:22:15 2020.
