 Entering Gaussian System, Link 0=g16
 Input=NicPySa2h2.gjf
 Output=NicPySa2h2.log
 Initial command:
 /sw/contrib/gaussian/g16/A03/g16/l1.exe "/usr/lusers/gds001/Gau-10662.inp" -scrdir="/usr/lusers/gds001/"
 Entering Link 1 = /sw/contrib/gaussian/g16/A03/g16/l1.exe PID=     10670.
  
 Copyright (c) 1988,1990,1992,1993,1995,1998,2003,2009,2016,
            Gaussian, Inc.  All Rights Reserved.
  
 This is part of the Gaussian(R) 16 program.  It is based on
 the Gaussian(R) 09 system (copyright 2009, Gaussian, Inc.),
 the Gaussian(R) 03 system (copyright 2003, Gaussian, Inc.),
 the Gaussian(R) 98 system (copyright 1998, Gaussian, Inc.),
 the Gaussian(R) 94 system (copyright 1995, Gaussian, Inc.),
 the Gaussian 92(TM) system (copyright 1992, Gaussian, Inc.),
 the Gaussian 90(TM) system (copyright 1990, Gaussian, Inc.),
 the Gaussian 88(TM) system (copyright 1988, Gaussian, Inc.),
 the Gaussian 86(TM) system (copyright 1986, Carnegie Mellon
 University), and the Gaussian 82(TM) system (copyright 1983,
 Carnegie Mellon University). Gaussian is a federally registered
 trademark of Gaussian, Inc.
  
 This software contains proprietary and confidential information,
 including trade secrets, belonging to Gaussian, Inc.
  
 This software is provided under written license and may be
 used, copied, transmitted, or stored only in accord with that
 written license.
  
 The following legend is applicable only to US Government
 contracts under FAR:
  
                    RESTRICTED RIGHTS LEGEND
  
 Use, reproduction and disclosure by the US Government is
 subject to restrictions as set forth in subparagraphs (a)
 and (c) of the Commercial Computer Software - Restricted
 Rights clause in FAR 52.227-19.
  
 Gaussian, Inc.
 340 Quinnipiac St., Bldg. 40, Wallingford CT 06492
  
  
 ---------------------------------------------------------------
 Warning -- This program may not be used in any manner that
 competes with the business of Gaussian, Inc. or will provide
 assistance to any competitor of Gaussian, Inc.  The licensee
 of this program is prohibited from giving any competitor of
 Gaussian, Inc. access to this program.  By using this program,
 the user acknowledges that Gaussian, Inc. is engaged in the
 business of creating and licensing software in the field of
 computational chemistry and represents and warrants to the
 licensee that it is not a competitor of Gaussian, Inc. and that
 it will not use this program in any manner prohibited above.
 ---------------------------------------------------------------
  

 Cite this work as:
 Gaussian 16, Revision A.03,
 M. J. Frisch, G. W. Trucks, H. B. Schlegel, G. E. Scuseria, 
 M. A. Robb, J. R. Cheeseman, G. Scalmani, V. Barone, 
 G. A. Petersson, H. Nakatsuji, X. Li, M. Caricato, A. V. Marenich, 
 J. Bloino, B. G. Janesko, R. Gomperts, B. Mennucci, H. P. Hratchian, 
 J. V. Ortiz, A. F. Izmaylov, J. L. Sonnenberg, D. Williams-Young, 
 F. Ding, F. Lipparini, F. Egidi, J. Goings, B. Peng, A. Petrone, 
 T. Henderson, D. Ranasinghe, V. G. Zakrzewski, J. Gao, N. Rega, 
 G. Zheng, W. Liang, M. Hada, M. Ehara, K. Toyota, R. Fukuda, 
 J. Hasegawa, M. Ishida, T. Nakajima, Y. Honda, O. Kitao, H. Nakai, 
 T. Vreven, K. Throssell, J. A. Montgomery, Jr., J. E. Peralta, 
 F. Ogliaro, M. J. Bearpark, J. J. Heyd, E. N. Brothers, K. N. Kudin, 
 V. N. Staroverov, T. A. Keith, R. Kobayashi, J. Normand, 
 K. Raghavachari, A. P. Rendell, J. C. Burant, S. S. Iyengar, 
 J. Tomasi, M. Cossi, J. M. Millam, M. Klene, C. Adamo, R. Cammi, 
 J. W. Ochterski, R. L. Martin, K. Morokuma, O. Farkas, 
 J. B. Foresman, and D. J. Fox, Gaussian, Inc., Wallingford CT, 2016.
 
 ******************************************
 Gaussian 16:  ES64L-G16RevA.03 25-Dec-2016
                20-Jul-2020 
 ******************************************
 %nprocshared=28
 Will use up to   28 processors via shared memory.
 %mem=41GB
 %chk=NicPySa2h2.chk
 ------------------------------------------------
 # wB97XD/aug-cc-pVDZ Opt=(CalcFC,ReCalc=50) Freq
 ------------------------------------------------
 1/10=4,18=20,19=15,26=3,38=1,71=50/1,3;
 2/9=110,12=2,17=6,18=5,40=1/2;
 3/5=16,7=10,11=2,25=1,30=1,71=2,74=-58,140=1/1,2,3;
 4//1;
 5/5=2,38=5/2;
 8/6=4,10=90,11=11/1;
 11/6=1,8=1,9=11,15=111,16=1/1,2,10;
 10/6=1,13=1/2;
 6/7=2,8=2,9=2,10=2,28=1/1;
 7/10=1,18=20,25=1/1,2,3,16;
 1/10=4,18=20,19=15,26=3,71=50/3(2);
 2/9=110/2;
 99//99;
 2/9=110/2;
 3/5=16,7=10,11=2,25=1,30=1,71=1,74=-58/1,2,3;
 4/5=5,16=3,69=1/1;
 5/5=2,38=5/2;
 7//1,2,3,16;
 1/18=20,19=15,26=3,71=50/3(-5);
 2/9=110/2;
 6/7=2,8=2,9=2,10=2,19=2,28=1/1;
 99/9=1/99;
 ---------------------------
 p-Py Nicotine, S anti, 2H2O
 ---------------------------
 Symbolic Z-matrix:
 Charge =  1 Multiplicity = 1
 N                    -1.96623  -1.43145  -0.8759 
 C                    -2.18112   0.01385  -0.78045 
 C                    -3.26278   0.19427   0.31458 
 C                    -3.15783  -1.10173   1.12176 
 C                    -2.88786  -2.13521   0.03295 
 C                    -0.89351   0.74102  -0.41996 
 C                     0.24006   0.04032  -0.03863 
 N                     1.36476   0.69053   0.30297 
 C                     1.46407   2.02806   0.29189 
 C                     0.37152   2.78836  -0.08543 
 C                    -0.8082    2.13788  -0.44098 
 O                     3.55591  -0.67059   1.03251 
 H                    -2.42197  -3.0505    0.41716 
 H                    -4.06402  -1.31808   1.69672 
 H                    -2.31243  -1.05551   1.82309 
 H                    -4.24853   0.25938  -0.16287 
 H                    -3.12015   1.09987   0.91548 
 H                    -3.83074  -2.41338  -0.46585 
 H                    -2.53177   0.439    -1.73283 
 H                     0.25247  -1.04659  -0.01493 
 H                     2.4233    2.44732   0.58507 
 H                     0.44788   3.87301  -0.10095 
 H                    -1.67663   2.7257   -0.74196 
 C                    -2.01994  -1.95168  -2.24793 
 H                     2.20428   0.13177   0.58792 
 H                     4.24861  -1.00612   0.42716 
 H                     3.77861  -0.9816    1.91256 
 O                     5.43843  -1.55144  -0.7126 
 H                     6.3107   -1.15998  -0.81093 
 H                     5.51686  -2.45526  -1.0298 
 H                    -1.2537   -1.4453   -2.87318 
 H                    -3.02407  -1.78506  -2.69657 
 H                    -1.79614  -3.03992  -2.24956 
 
 Add virtual bond connecting atoms H25        and O12        Dist= 3.09D+00.
 Add virtual bond connecting atoms O28        and H26        Dist= 3.28D+00.

 GradGradGradGradGradGradGradGradGradGradGradGradGradGradGradGradGradGrad
 Berny optimization.
 Initialization pass.
                           ----------------------------
                           !    Initial Parameters    !
                           ! (Angstroms and Degrees)  !
 --------------------------                            --------------------------
 ! Name  Definition              Value          Derivative Info.                !
 --------------------------------------------------------------------------------
 ! R1    R(1,2)                  1.4643         calculate D2E/DX2 analytically  !
 ! R2    R(1,5)                  1.4733         calculate D2E/DX2 analytically  !
 ! R3    R(1,24)                 1.4683         calculate D2E/DX2 analytically  !
 ! R4    R(2,3)                  1.5497         calculate D2E/DX2 analytically  !
 ! R5    R(2,6)                  1.5221         calculate D2E/DX2 analytically  !
 ! R6    R(2,19)                 1.1003         calculate D2E/DX2 analytically  !
 ! R7    R(3,4)                  1.5304         calculate D2E/DX2 analytically  !
 ! R8    R(3,16)                 1.0972         calculate D2E/DX2 analytically  !
 ! R9    R(3,17)                 1.0962         calculate D2E/DX2 analytically  !
 ! R10   R(4,5)                  1.5253         calculate D2E/DX2 analytically  !
 ! R11   R(4,14)                 1.0948         calculate D2E/DX2 analytically  !
 ! R12   R(4,15)                 1.0994         calculate D2E/DX2 analytically  !
 ! R13   R(5,13)                 1.0966         calculate D2E/DX2 analytically  !
 ! R14   R(5,18)                 1.1024         calculate D2E/DX2 analytically  !
 ! R15   R(6,7)                  1.3861         calculate D2E/DX2 analytically  !
 ! R16   R(6,11)                 1.3996         calculate D2E/DX2 analytically  !
 ! R17   R(7,8)                  1.3433         calculate D2E/DX2 analytically  !
 ! R18   R(7,20)                 1.0872         calculate D2E/DX2 analytically  !
 ! R19   R(8,9)                  1.3413         calculate D2E/DX2 analytically  !
 ! R20   R(8,25)                 1.048          calculate D2E/DX2 analytically  !
 ! R21   R(9,10)                 1.3835         calculate D2E/DX2 analytically  !
 ! R22   R(9,21)                 1.0871         calculate D2E/DX2 analytically  !
 ! R23   R(10,11)                1.3933         calculate D2E/DX2 analytically  !
 ! R24   R(10,22)                1.0874         calculate D2E/DX2 analytically  !
 ! R25   R(11,23)                1.091          calculate D2E/DX2 analytically  !
 ! R26   R(12,25)                1.6335         calculate D2E/DX2 analytically  !
 ! R27   R(12,26)                0.9792         calculate D2E/DX2 analytically  !
 ! R28   R(12,27)                0.9596         calculate D2E/DX2 analytically  !
 ! R29   R(24,31)                1.1111         calculate D2E/DX2 analytically  !
 ! R30   R(24,32)                1.1123         calculate D2E/DX2 analytically  !
 ! R31   R(24,33)                1.111          calculate D2E/DX2 analytically  !
 ! R32   R(26,28)                1.7355         calculate D2E/DX2 analytically  !
 ! R33   R(28,29)                0.9611         calculate D2E/DX2 analytically  !
 ! R34   R(28,30)                0.9611         calculate D2E/DX2 analytically  !
 ! A1    A(2,1,5)              109.8437         calculate D2E/DX2 analytically  !
 ! A2    A(2,1,24)             113.9068         calculate D2E/DX2 analytically  !
 ! A3    A(5,1,24)             112.6            calculate D2E/DX2 analytically  !
 ! A4    A(1,2,3)              105.272          calculate D2E/DX2 analytically  !
 ! A5    A(1,2,6)              111.2749         calculate D2E/DX2 analytically  !
 ! A6    A(1,2,19)             111.8214         calculate D2E/DX2 analytically  !
 ! A7    A(3,2,6)              111.5607         calculate D2E/DX2 analytically  !
 ! A8    A(3,2,19)             110.1317         calculate D2E/DX2 analytically  !
 ! A9    A(6,2,19)             106.8571         calculate D2E/DX2 analytically  !
 ! A10   A(2,3,4)              103.0751         calculate D2E/DX2 analytically  !
 ! A11   A(2,3,16)             109.0565         calculate D2E/DX2 analytically  !
 ! A12   A(2,3,17)             113.1235         calculate D2E/DX2 analytically  !
 ! A13   A(4,3,16)             109.9599         calculate D2E/DX2 analytically  !
 ! A14   A(4,3,17)             113.6764         calculate D2E/DX2 analytically  !
 ! A15   A(16,3,17)            107.8433         calculate D2E/DX2 analytically  !
 ! A16   A(3,4,5)              102.0884         calculate D2E/DX2 analytically  !
 ! A17   A(3,4,14)             112.8037         calculate D2E/DX2 analytically  !
 ! A18   A(3,4,15)             110.7064         calculate D2E/DX2 analytically  !
 ! A19   A(5,4,14)             112.7994         calculate D2E/DX2 analytically  !
 ! A20   A(5,4,15)             110.3504         calculate D2E/DX2 analytically  !
 ! A21   A(14,4,15)            108.0459         calculate D2E/DX2 analytically  !
 ! A22   A(1,5,4)              103.1451         calculate D2E/DX2 analytically  !
 ! A23   A(1,5,13)             110.4306         calculate D2E/DX2 analytically  !
 ! A24   A(1,5,18)             112.1143         calculate D2E/DX2 analytically  !
 ! A25   A(4,5,13)             112.9949         calculate D2E/DX2 analytically  !
 ! A26   A(4,5,18)             110.0349         calculate D2E/DX2 analytically  !
 ! A27   A(13,5,18)            108.1383         calculate D2E/DX2 analytically  !
 ! A28   A(2,6,7)              121.0292         calculate D2E/DX2 analytically  !
 ! A29   A(2,6,11)             121.656          calculate D2E/DX2 analytically  !
 ! A30   A(7,6,11)             117.3091         calculate D2E/DX2 analytically  !
 ! A31   A(6,7,8)              120.663          calculate D2E/DX2 analytically  !
 ! A32   A(6,7,20)             121.3782         calculate D2E/DX2 analytically  !
 ! A33   A(8,7,20)             117.9563         calculate D2E/DX2 analytically  !
 ! A34   A(7,8,9)              122.8606         calculate D2E/DX2 analytically  !
 ! A35   A(7,8,25)             118.8032         calculate D2E/DX2 analytically  !
 ! A36   A(9,8,25)             118.3358         calculate D2E/DX2 analytically  !
 ! A37   A(8,9,10)             119.4589         calculate D2E/DX2 analytically  !
 ! A38   A(8,9,21)             116.596          calculate D2E/DX2 analytically  !
 ! A39   A(10,9,21)            123.9448         calculate D2E/DX2 analytically  !
 ! A40   A(9,10,11)            118.7948         calculate D2E/DX2 analytically  !
 ! A41   A(9,10,22)            119.7735         calculate D2E/DX2 analytically  !
 ! A42   A(11,10,22)           121.4316         calculate D2E/DX2 analytically  !
 ! A43   A(6,11,10)            120.9122         calculate D2E/DX2 analytically  !
 ! A44   A(6,11,23)            119.561          calculate D2E/DX2 analytically  !
 ! A45   A(10,11,23)           119.5267         calculate D2E/DX2 analytically  !
 ! A46   A(25,12,26)           125.83           calculate D2E/DX2 analytically  !
 ! A47   A(25,12,27)           126.9298         calculate D2E/DX2 analytically  !
 ! A48   A(26,12,27)           106.9619         calculate D2E/DX2 analytically  !
 ! A49   A(1,24,31)            109.8241         calculate D2E/DX2 analytically  !
 ! A50   A(1,24,32)            110.905          calculate D2E/DX2 analytically  !
 ! A51   A(1,24,33)            109.9403         calculate D2E/DX2 analytically  !
 ! A52   A(31,24,32)           109.1056         calculate D2E/DX2 analytically  !
 ! A53   A(31,24,33)           107.8591         calculate D2E/DX2 analytically  !
 ! A54   A(32,24,33)           109.1454         calculate D2E/DX2 analytically  !
 ! A55   A(26,28,29)           124.152          calculate D2E/DX2 analytically  !
 ! A56   A(26,28,30)           124.6233         calculate D2E/DX2 analytically  !
 ! A57   A(29,28,30)           105.9744         calculate D2E/DX2 analytically  !
 ! A58   L(8,25,12,13,-1)      182.8292         calculate D2E/DX2 analytically  !
 ! A59   L(12,26,28,24,-1)     178.1122         calculate D2E/DX2 analytically  !
 ! A60   L(8,25,12,13,-2)      180.2795         calculate D2E/DX2 analytically  !
 ! A61   L(12,26,28,24,-2)     177.4977         calculate D2E/DX2 analytically  !
 ! D1    D(5,1,2,3)              2.8356         calculate D2E/DX2 analytically  !
 ! D2    D(5,1,2,6)            123.8409         calculate D2E/DX2 analytically  !
 ! D3    D(5,1,2,19)          -116.7447         calculate D2E/DX2 analytically  !
 ! D4    D(24,1,2,3)           130.1989         calculate D2E/DX2 analytically  !
 ! D5    D(24,1,2,6)          -108.7958         calculate D2E/DX2 analytically  !
 ! D6    D(24,1,2,19)           10.6186         calculate D2E/DX2 analytically  !
 ! D7    D(2,1,5,4)            -26.6755         calculate D2E/DX2 analytically  !
 ! D8    D(2,1,5,13)          -147.6785         calculate D2E/DX2 analytically  !
 ! D9    D(2,1,5,18)            91.6607         calculate D2E/DX2 analytically  !
 ! D10   D(24,1,5,4)          -154.7647         calculate D2E/DX2 analytically  !
 ! D11   D(24,1,5,13)           84.2323         calculate D2E/DX2 analytically  !
 ! D12   D(24,1,5,18)          -36.4285         calculate D2E/DX2 analytically  !
 ! D13   D(2,1,24,31)           58.4979         calculate D2E/DX2 analytically  !
 ! D14   D(2,1,24,32)          -62.1754         calculate D2E/DX2 analytically  !
 ! D15   D(2,1,24,33)          177.0249         calculate D2E/DX2 analytically  !
 ! D16   D(5,1,24,31)         -175.5778         calculate D2E/DX2 analytically  !
 ! D17   D(5,1,24,32)           63.7489         calculate D2E/DX2 analytically  !
 ! D18   D(5,1,24,33)          -57.0509         calculate D2E/DX2 analytically  !
 ! D19   D(1,2,3,4)             22.0233         calculate D2E/DX2 analytically  !
 ! D20   D(1,2,3,16)           -94.7841         calculate D2E/DX2 analytically  !
 ! D21   D(1,2,3,17)           145.2155         calculate D2E/DX2 analytically  !
 ! D22   D(6,2,3,4)            -98.7947         calculate D2E/DX2 analytically  !
 ! D23   D(6,2,3,16)           144.3979         calculate D2E/DX2 analytically  !
 ! D24   D(6,2,3,17)            24.3975         calculate D2E/DX2 analytically  !
 ! D25   D(19,2,3,4)           142.7196         calculate D2E/DX2 analytically  !
 ! D26   D(19,2,3,16)           25.9122         calculate D2E/DX2 analytically  !
 ! D27   D(19,2,3,17)          -94.0883         calculate D2E/DX2 analytically  !
 ! D28   D(1,2,6,7)             -9.2778         calculate D2E/DX2 analytically  !
 ! D29   D(1,2,6,11)           171.6149         calculate D2E/DX2 analytically  !
 ! D30   D(3,2,6,7)            107.9667         calculate D2E/DX2 analytically  !
 ! D31   D(3,2,6,11)           -71.1406         calculate D2E/DX2 analytically  !
 ! D32   D(19,2,6,7)          -131.6078         calculate D2E/DX2 analytically  !
 ! D33   D(19,2,6,11)           49.2849         calculate D2E/DX2 analytically  !
 ! D34   D(2,3,4,5)            -37.643          calculate D2E/DX2 analytically  !
 ! D35   D(2,3,4,14)          -158.9712         calculate D2E/DX2 analytically  !
 ! D36   D(2,3,4,15)            79.819          calculate D2E/DX2 analytically  !
 ! D37   D(16,3,4,5)            78.5221         calculate D2E/DX2 analytically  !
 ! D38   D(16,3,4,14)          -42.806          calculate D2E/DX2 analytically  !
 ! D39   D(16,3,4,15)         -164.0158         calculate D2E/DX2 analytically  !
 ! D40   D(17,3,4,5)          -160.4668         calculate D2E/DX2 analytically  !
 ! D41   D(17,3,4,14)           78.205          calculate D2E/DX2 analytically  !
 ! D42   D(17,3,4,15)          -43.0048         calculate D2E/DX2 analytically  !
 ! D43   D(3,4,5,1)             39.5149         calculate D2E/DX2 analytically  !
 ! D44   D(3,4,5,13)           158.7578         calculate D2E/DX2 analytically  !
 ! D45   D(3,4,5,18)           -80.2636         calculate D2E/DX2 analytically  !
 ! D46   D(14,4,5,1)           160.846          calculate D2E/DX2 analytically  !
 ! D47   D(14,4,5,13)          -79.9111         calculate D2E/DX2 analytically  !
 ! D48   D(14,4,5,18)           41.0676         calculate D2E/DX2 analytically  !
 ! D49   D(15,4,5,1)           -78.2023         calculate D2E/DX2 analytically  !
 ! D50   D(15,4,5,13)           41.0406         calculate D2E/DX2 analytically  !
 ! D51   D(15,4,5,18)          162.0193         calculate D2E/DX2 analytically  !
 ! D52   D(2,6,7,8)           -178.7005         calculate D2E/DX2 analytically  !
 ! D53   D(2,6,7,20)             1.8842         calculate D2E/DX2 analytically  !
 ! D54   D(11,6,7,8)             0.4444         calculate D2E/DX2 analytically  !
 ! D55   D(11,6,7,20)         -178.9709         calculate D2E/DX2 analytically  !
 ! D56   D(2,6,11,10)          178.8642         calculate D2E/DX2 analytically  !
 ! D57   D(2,6,11,23)           -1.269          calculate D2E/DX2 analytically  !
 ! D58   D(7,6,11,10)           -0.2749         calculate D2E/DX2 analytically  !
 ! D59   D(7,6,11,23)          179.5919         calculate D2E/DX2 analytically  !
 ! D60   D(6,7,8,9)             -0.3044         calculate D2E/DX2 analytically  !
 ! D61   D(6,7,8,25)           179.9143         calculate D2E/DX2 analytically  !
 ! D62   D(20,7,8,9)           179.1305         calculate D2E/DX2 analytically  !
 ! D63   D(20,7,8,25)           -0.6508         calculate D2E/DX2 analytically  !
 ! D64   D(7,8,9,10)            -0.0287         calculate D2E/DX2 analytically  !
 ! D65   D(7,8,9,21)          -179.8584         calculate D2E/DX2 analytically  !
 ! D66   D(25,8,9,10)          179.7536         calculate D2E/DX2 analytically  !
 ! D67   D(25,8,9,21)           -0.0761         calculate D2E/DX2 analytically  !
 ! D68   D(7,8,12,26)           87.7609         calculate D2E/DX2 analytically  !
 ! D69   D(7,8,12,27)          -86.9955         calculate D2E/DX2 analytically  !
 ! D70   D(9,8,12,26)          -91.7811         calculate D2E/DX2 analytically  !
 ! D71   D(9,8,12,27)           93.4624         calculate D2E/DX2 analytically  !
 ! D72   D(8,9,10,11)            0.1966         calculate D2E/DX2 analytically  !
 ! D73   D(8,9,10,22)         -179.7002         calculate D2E/DX2 analytically  !
 ! D74   D(21,9,10,11)        -179.987          calculate D2E/DX2 analytically  !
 ! D75   D(21,9,10,22)           0.1162         calculate D2E/DX2 analytically  !
 ! D76   D(9,10,11,6)           -0.0389         calculate D2E/DX2 analytically  !
 ! D77   D(9,10,11,23)        -179.9057         calculate D2E/DX2 analytically  !
 ! D78   D(22,10,11,6)         179.8562         calculate D2E/DX2 analytically  !
 ! D79   D(22,10,11,23)         -0.0107         calculate D2E/DX2 analytically  !
 ! D80   D(25,12,28,29)        107.7162         calculate D2E/DX2 analytically  !
 ! D81   D(25,12,28,30)       -100.0962         calculate D2E/DX2 analytically  !
 ! D82   D(27,12,28,29)        -77.6686         calculate D2E/DX2 analytically  !
 ! D83   D(27,12,28,30)         74.519          calculate D2E/DX2 analytically  !
 --------------------------------------------------------------------------------
 Trust Radius=3.00D-01 FncErr=1.00D-07 GrdErr=1.00D-06 EigMax=2.50D+02 EigMin=1.00D-04
 Number of steps in this run=    188 maximum allowed number of steps=    198.
 GradGradGradGradGradGradGradGradGradGradGradGradGradGradGradGradGradGrad

                          Input orientation:                          
 ---------------------------------------------------------------------
 Center     Atomic      Atomic             Coordinates (Angstroms)
 Number     Number       Type             X           Y           Z
 ---------------------------------------------------------------------
      1          7           0       -1.966230   -1.431445   -0.875904
      2          6           0       -2.181120    0.013848   -0.780449
      3          6           0       -3.262777    0.194266    0.314576
      4          6           0       -3.157831   -1.101734    1.121758
      5          6           0       -2.887863   -2.135208    0.032953
      6          6           0       -0.893508    0.741016   -0.419958
      7          6           0        0.240061    0.040319   -0.038628
      8          7           0        1.364757    0.690531    0.302974
      9          6           0        1.464071    2.028056    0.291894
     10          6           0        0.371521    2.788359   -0.085426
     11          6           0       -0.808195    2.137877   -0.440976
     12          8           0        3.555914   -0.670588    1.032511
     13          1           0       -2.421969   -3.050502    0.417164
     14          1           0       -4.064025   -1.318077    1.696718
     15          1           0       -2.312431   -1.055508    1.823092
     16          1           0       -4.248533    0.259375   -0.162872
     17          1           0       -3.120147    1.099873    0.915476
     18          1           0       -3.830740   -2.413382   -0.465847
     19          1           0       -2.531765    0.439001   -1.732826
     20          1           0        0.252473   -1.046594   -0.014926
     21          1           0        2.423297    2.447322    0.585072
     22          1           0        0.447884    3.873005   -0.100951
     23          1           0       -1.676633    2.725704   -0.741957
     24          6           0       -2.019938   -1.951677   -2.247931
     25          1           0        2.204278    0.131772    0.587917
     26          1           0        4.248613   -1.006115    0.427158
     27          1           0        3.778608   -0.981599    1.912560
     28          8           0        5.438430   -1.551437   -0.712603
     29          1           0        6.310696   -1.159983   -0.810926
     30          1           0        5.516855   -2.455262   -1.029796
     31          1           0       -1.253705   -1.445295   -2.873177
     32          1           0       -3.024068   -1.785058   -2.696566
     33          1           0       -1.796141   -3.039915   -2.249559
 ---------------------------------------------------------------------
                    Distance matrix (angstroms):
                    1          2          3          4          5
     1  N    0.000000
     2  C    1.464295   0.000000
     3  C    2.396083   1.549714   0.000000
     4  C    2.349314   2.411821   1.530416   0.000000
     5  C    1.473333   2.404070   2.376199   1.525270   0.000000
     6  C    2.465402   1.522062   2.540061   3.301481   3.529199
     7  C    2.781158   2.532413   3.523965   3.767818   3.810768
     8  N    4.121651   3.768945   4.654083   4.933196   5.112973
     9  C    5.009877   4.300508   5.070147   5.643247   6.028196
    10  C    4.888423   3.833659   4.483017   5.389475   5.905854
    11  C    3.777601   2.551796   3.220785   4.296278   4.775865
    12  O    5.891946   6.055480   6.910713   6.728166   6.683299
    13  H    2.121572   3.298867   3.353506   2.199009   1.096558
    14  H    3.321442   3.384629   2.199886   1.094793   2.195262
    15  H    2.746955   2.817657   2.177318   1.099412   2.168288
    16  H    2.928514   2.171608   1.097229   2.166223   2.761123
    17  H    3.308797   2.222022   1.096152   2.211571   3.361332
    18  H    2.146799   2.951553   2.780552   2.166499   1.102361
    19  H    2.133709   1.100331   2.187722   3.303706   3.141868
    20  H    2.410817   2.762777   3.742364   3.595172   3.324016
    21  H    6.037154   5.383967   6.122162   6.635723   7.036536
    22  H    5.879259   4.718736   5.241640   6.264521   6.873410
    23  H    4.169376   2.758650   3.168642   4.507401   5.069125
    24  C    1.468327   2.458205   3.565973   3.656776   2.447327
    25  H    4.688236   4.595438   5.474241   5.527996   5.601525
    26  H    6.364208   6.621186   7.607534   7.439558   7.235989
    27  H    6.401645   6.615253   7.315553   6.982405   7.021793
    28  O    7.407432   7.778963   8.933845   8.801296   8.379964
    29  H    8.281631   8.572616   9.734071   9.663936   9.288524
    30  H    7.554366   8.088108   9.268726   9.039436   8.477686
    31  H    2.120609   2.714536   4.109294   4.438833   3.404709
    32  H    2.135152   2.760096   3.611327   3.881291   2.755255
    33  H    2.122036   3.410567   4.380153   4.120258   2.687046
                    6          7          8          9         10
     6  C    0.000000
     7  C    1.386134   0.000000
     8  N    2.371696   1.343283   0.000000
     9  C    2.778738   2.357656   1.341253   0.000000
    10  C    2.429778   2.751581   2.353350   1.383509   0.000000
    11  C    1.399622   2.379175   2.714773   2.390053   1.393296
    12  O    4.888727   3.556348   2.680679   3.493852   4.832645
    13  H    4.172838   4.104549   5.324252   6.395995   6.492186
    14  H    4.332708   4.835475   5.953881   6.612865   6.301819
    15  H    3.205014   3.343958   4.345241   5.110274   5.061754
    16  H    3.399156   4.495653   5.649065   5.997407   5.267510
    17  H    2.621084   3.650201   4.545006   4.718626   4.005563
    18  H    4.310413   4.772273   6.100701   6.952378   6.697897
    19  H    2.121019   3.272961   4.403480   4.753030   4.081970
    20  H    2.161683   1.087242   2.087065   3.318973   3.837448
    21  H    3.862999   3.308955   2.070362   1.087130   2.185328
    22  H    3.422054   3.838822   3.336458   2.142615   1.087442
    23  H    2.157766   3.373378   3.805767   3.379287   2.151719
    24  C    3.443969   3.735861   4.994451   5.867478   5.732664
    25  H    3.314101   2.063752   1.047950   2.057044   3.296945
    26  H    5.496497   4.168989   3.348232   4.120457   5.449093
    27  H    5.498792   4.168065   3.348651   4.128155   5.460107
    28  O    6.740506   5.478227   4.759478   5.442179   6.700802
    29  H    7.461046   6.236167   5.396989   5.905047   7.168651
    30  H    7.188939   5.920717   5.377007   6.186442   7.406879
    31  H    3.305750   3.531721   4.637459   5.428457   5.323227
    32  H    4.012889   4.588156   5.864091   6.604099   6.266117
    33  H    4.296234   4.303740   5.515699   6.540054   6.584149
                   11         12         13         14         15
    11  C    0.000000
    12  O    5.394820   0.000000
    13  H    5.500904   6.463569   0.000000
    14  H    5.207090   7.676189   2.708303   0.000000
    15  H    4.193619   5.933857   2.443079   1.775667   0.000000
    16  H    3.929636   7.950042   3.824665   2.445501   3.069440
    17  H    2.874463   6.907823   4.238087   2.710669   2.474235
    18  H    5.463548   7.735959   1.780524   2.435324   3.064037
    19  H    2.743310   6.777766   4.100139   4.146916   3.863446
    20  H    3.383399   3.485861   3.369716   4.651407   3.155491
    21  H    3.404566   3.347295   7.330134   7.582831   6.019106
    22  H    2.168875   5.620394   7.512619   7.108887   5.967539
    23  H    1.091015   6.485606   5.938320   5.291403   4.613164
    24  C    4.632263   6.594893   2.910632   4.487761   4.178744
    25  H    3.762721   1.633513   5.617667   6.528639   4.830730
    26  H    6.017445   0.979215   6.976839   8.414812   6.708082
    27  H    6.025697   0.959587   6.705500   7.852815   6.092144
    28  O    7.259831   2.713887   8.081426   9.805913   8.170162
    29  H    7.854384   3.350611   9.018964  10.674648   9.017055
    30  H    7.838998   3.359086   8.091534  10.025983   8.449615
    31  H    4.353528   6.243957   3.842899   5.366379   4.829884
    32  H    5.038571   7.644882   3.414555   4.538780   4.633139
    33  H    5.572840   6.710454   2.739194   4.866326   4.559706
                   16         17         18         19         20
    16  H    0.000000
    17  H    1.772717   0.000000
    18  H    2.722127   3.841348   0.000000
    19  H    2.333305   2.792212   3.380630   0.000000
    20  H    4.688976   4.104575   4.329442   3.593070   0.000000
    21  H    7.061151   5.714417   7.990235   5.827405   4.156913
    22  H    5.926085   4.631871   7.613044   4.830498   4.924230
    23  H    3.610095   2.733888   5.579123   2.634783   4.298867
    24  C    3.768668   4.530956   2.582247   2.498528   3.311999
    25  H    6.497595   5.421625   6.633978   5.283024   2.358285
    26  H    8.611103   7.679340   8.249473   7.261365   4.020723
    27  H    8.383462   7.274581   8.099938   7.424806   4.019086
    28  O    9.870081   9.106554   9.312430   8.278086   5.256973
    29  H   10.673887   9.850290  10.224422   9.033037   6.111345
    30  H   10.172690   9.540486   9.364685   8.582033   5.543286
    31  H    4.384136   4.931063   3.656985   2.546451   3.255323
    32  H    3.478308   4.623733   2.453899   2.473378   4.297935
    33  H    4.610185   5.376643   2.777367   3.593190   3.628186
                   21         22         23         24         25
    21  H    0.000000
    22  H    2.530900   0.000000
    23  H    4.318325   2.498151   0.000000
    24  C    6.864359   6.680313   4.925820   0.000000
    25  H    2.325887   4.190022   4.853712   5.497890   0.000000
    26  H    3.909340   6.207274   7.099426   6.880764   2.345194
    27  H    3.918749   6.222148   7.109867   7.202352   2.339399
    28  O    5.173496   7.396231   8.301742   7.625265   3.870954
    29  H    5.483916   7.759355   8.882609   8.490655   4.526374
    30  H    6.017743   8.161139   8.869697   7.651189   4.503655
    31  H    6.374347   6.234177   4.702999   1.111066   5.140424
    32  H    7.639108   7.127787   5.097358   1.112346   6.465112
    33  H    7.479877   7.578960   5.960664   1.111014   5.840738
                   26         27         28         29         30
    26  H    0.000000
    27  H    1.558180   0.000000
    28  O    1.735539   3.157722   0.000000
    29  H    2.410127   3.722992   0.961120   0.000000
    30  H    2.414784   3.721645   0.961073   1.534873   0.000000
    31  H    6.431220   6.960062   7.033066   7.845664   7.089327
    32  H    7.953382   8.256270   8.695088   9.543803   8.727809
    33  H    6.916662   7.255186   7.544324   8.445390   7.437039
                   31         32         33
    31  H    0.000000
    32  H    1.811302   0.000000
    33  H    1.796093   1.811708   0.000000
 Stoichiometry    C10H19N2O2(1+)
 Framework group  C1[X(C10H19N2O2)]
 Deg. of freedom    93
 Full point group                 C1      NOp   1
 Largest Abelian subgroup         C1      NOp   1
 Largest concise Abelian subgroup C1      NOp   1
                         Standard orientation:                         
 ---------------------------------------------------------------------
 Center     Atomic      Atomic             Coordinates (Angstroms)
 Number     Number       Type             X           Y           Z
 ---------------------------------------------------------------------
      1          7           0       -1.921730   -1.267602   -0.369269
      2          6           0       -2.048821    0.181284   -0.538787
      3          6           0       -3.060019    0.631998    0.545624
      4          6           0       -2.987085   -0.496074    1.577277
      5          6           0       -2.833350   -1.728813    0.692308
      6          6           0       -0.704929    0.876594   -0.373959
      7          6           0        0.405263    0.185850    0.086167
      8          7           0        1.581365    0.812892    0.253532
      9          6           0        1.755870    2.115766   -0.012978
     10          6           0        0.690174    2.863006   -0.482042
     11          6           0       -0.541526    2.236724   -0.660817
     12          8           0        3.726559   -0.530258    1.136778
     13          1           0       -2.400901   -2.585639    1.222662
     14          1           0       -3.872967   -0.542240    2.218878
     15          1           0       -2.105077   -0.376276    2.222581
     16          1           0       -4.063984    0.672046    0.104760
     17          1           0       -2.835044    1.621910    0.959156
     18          1           0       -3.815196   -2.032121    0.293334
     19          1           0       -2.423803    0.444711   -1.539149
     20          1           0        0.357060   -0.876289    0.313394
     21          1           0        2.751341    2.518249    0.157013
     22          1           0        0.827184    3.918614   -0.704413
     23          1           0       -1.389613    2.814293   -1.031596
     24          6           0       -2.076257   -2.028345   -1.615614
     25          1           0        2.401439    0.262750    0.604275
     26          1           0        4.366616   -1.016826    0.577814
     27          1           0        3.976698   -0.686775    2.049872
     28          8           0        5.462573   -1.840710   -0.486231
     29          1           0        6.349388   -1.532321   -0.691671
     30          1           0        5.472859   -2.790816   -0.630642
     31          1           0       -1.316042   -1.697933   -2.355456
     32          1           0       -3.091270   -1.882224   -2.046555
     33          1           0       -1.915098   -3.110343   -1.421552
 ---------------------------------------------------------------------
 Rotational constants (GHZ):           0.8100430           0.3136317           0.2598644
 Standard basis: Aug-CC-pVDZ (5D, 7F)
 There are   521 symmetry adapted cartesian basis functions of A   symmetry.
 There are   493 symmetry adapted basis functions of A   symmetry.
   493 basis functions,   811 primitive gaussians,   521 cartesian basis functions
    54 alpha electrons       54 beta electrons
       nuclear repulsion energy       913.9241393183 Hartrees.
 NAtoms=   33 NActive=   33 NUniq=   33 SFac= 1.00D+00 NAtFMM=   60 NAOKFM=F Big=F
 Integral buffers will be    131072 words long.
 Raffenetti 2 integral format.
 Two-electron integral symmetry is turned on.
 Nuclear repulsion after empirical dispersion term =      913.9022768328 Hartrees.
 One-electron integrals computed using PRISM.
 NBasis=   493 RedAO= T EigKep=  2.86D-06  NBF=   493
 NBsUse=   493 1.00D-06 EigRej= -1.00D+00 NBFU=   493
 ExpMin= 2.97D-02 ExpMax= 1.17D+04 ExpMxC= 4.01D+02 IAcc=3 IRadAn=         5 AccDes= 0.00D+00
 Harris functional with IExCor= 4639 and IRadAn=       5 diagonalized for initial guess.
 HarFok:  IExCor= 4639 AccDes= 0.00D+00 IRadAn=         5 IDoV= 1 UseB2=F ITyADJ=14
 ICtDFT=  3500011 ScaDFX=  1.000000  1.000000  1.000000  1.000000
 FoFCou: FMM=F IPFlag=           0 FMFlag=      100000 FMFlg1=           0
         NFxFlg=           0 DoJE=T BraDBF=F KetDBF=T FulRan=T
         wScrn=  0.000000 ICntrl=       500 IOpCl=  0 I1Cent=   200000004 NGrid=           0
         NMat0=    1 NMatS0=      1 NMatT0=    0 NMatD0=    1 NMtDS0=    0 NMtDT0=    0
 Petite list used in FoFCou.
 Requested convergence on RMS density matrix=1.00D-08 within 128 cycles.
 Requested convergence on MAX density matrix=1.00D-06.
 Requested convergence on             energy=1.00D-06.
 No special actions if energy rises.
 SCF Done:  E(RwB97XD) =  -652.150352576     A.U. after   14 cycles
            NFock= 14  Conv=0.71D-08     -V/T= 2.0065
 DoSCS=F DFT=T ScalE2(SS,OS)=  1.000000  1.000000
 Range of M.O.s used for correlation:     1   493
 NBasis=   493 NAE=    54 NBE=    54 NFC=     0 NFV=     0
 NROrb=    493 NOA=    54 NOB=    54 NVA=   439 NVB=   439

 **** Warning!!: The largest alpha MO coefficient is  0.10512480D+03

 Symmetrizing basis deriv contribution to polar:
 IMax=3 JMax=2 DiffMx= 0.00D+00
 G2DrvN: will do    34 centers at a time, making    1 passes.
 Calling FoFCou, ICntrl=  3107 FMM=F I1Cent=   0 AccDes= 0.00D+00.
 End of G2Drv F.D. properties file   721 does not exist.
 End of G2Drv F.D. properties file   722 does not exist.
 End of G2Drv F.D. properties file   788 does not exist.
          IDoAtm=111111111111111111111111111111111
          Differentiating once with respect to nuclear coordinates.
 CalDSu exits because no D1Ps are significant.
          There are   102 degrees of freedom in the 1st order CPHF.  IDoFFX=6 NUNeed=     0.
     96 vectors produced by pass  0 Test12= 2.37D-14 1.00D-09 XBig12= 4.34D-01 1.63D-01.
 AX will form    96 AO Fock derivatives at one time.
     96 vectors produced by pass  1 Test12= 2.37D-14 1.00D-09 XBig12= 4.15D-02 4.22D-02.
     96 vectors produced by pass  2 Test12= 2.37D-14 1.00D-09 XBig12= 1.19D-03 5.41D-03.
     96 vectors produced by pass  3 Test12= 2.37D-14 1.00D-09 XBig12= 1.41D-05 6.88D-04.
     96 vectors produced by pass  4 Test12= 2.37D-14 1.00D-09 XBig12= 1.17D-07 4.11D-05.
     96 vectors produced by pass  5 Test12= 2.37D-14 1.00D-09 XBig12= 6.47D-10 2.51D-06.
     94 vectors produced by pass  6 Test12= 2.37D-14 1.00D-09 XBig12= 3.58D-12 1.56D-07.
     40 vectors produced by pass  7 Test12= 2.37D-14 1.00D-09 XBig12= 2.23D-14 7.97D-09.
     11 vectors produced by pass  8 Test12= 2.37D-14 1.00D-09 XBig12= 2.76D-15 3.22D-09.
      2 vectors produced by pass  9 Test12= 2.37D-14 1.00D-09 XBig12= 7.42D-16 2.08D-09.
 InvSVY:  IOpt=1 It=  1 EMax= 7.22D-16
 Solved reduced A of dimension   723 with   102 vectors.
 End of Minotr F.D. properties file   721 does not exist.
 End of Minotr F.D. properties file   722 does not exist.
 End of Minotr F.D. properties file   788 does not exist.

 **********************************************************************

            Population analysis using the SCF density.

 **********************************************************************

 Orbital symmetries:
       Occupied  (A) (A) (A) (A) (A) (A) (A) (A) (A) (A) (A) (A)
                 (A) (A) (A) (A) (A) (A) (A) (A) (A) (A) (A) (A)
                 (A) (A) (A) (A) (A) (A) (A) (A) (A) (A) (A) (A)
                 (A) (A) (A) (A) (A) (A) (A) (A) (A) (A) (A) (A)
                 (A) (A) (A) (A) (A) (A)
       Virtual   (A) (A) (A) (A) (A) (A) (A) (A) (A) (A) (A) (A)
                 (A) (A) (A) (A) (A) (A) (A) (A) (A) (A) (A) (A)
                 (A) (A) (A) (A) (A) (A) (A) (A) (A) (A) (A) (A)
                 (A) (A) (A) (A) (A) (A) (A) (A) (A) (A) (A) (A)
                 (A) (A) (A) (A) (A) (A) (A) (A) (A) (A) (A) (A)
                 (A) (A) (A) (A) (A) (A) (A) (A) (A) (A) (A) (A)
                 (A) (A) (A) (A) (A) (A) (A) (A) (A) (A) (A) (A)
                 (A) (A) (A) (A) (A) (A) (A) (A) (A) (A) (A) (A)
                 (A) (A) (A) (A) (A) (A) (A) (A) (A) (A) (A) (A)
                 (A) (A) (A) (A) (A) (A) (A) (A) (A) (A) (A) (A)
                 (A) (A) (A) (A) (A) (A) (A) (A) (A) (A) (A) (A)
                 (A) (A) (A) (A) (A) (A) (A) (A) (A) (A) (A) (A)
                 (A) (A) (A) (A) (A) (A) (A) (A) (A) (A) (A) (A)
                 (A) (A) (A) (A) (A) (A) (A) (A) (A) (A) (A) (A)
                 (A) (A) (A) (A) (A) (A) (A) (A) (A) (A) (A) (A)
                 (A) (A) (A) (A) (A) (A) (A) (A) (A) (A) (A) (A)
                 (A) (A) (A) (A) (A) (A) (A) (A) (A) (A) (A) (A)
                 (A) (A) (A) (A) (A) (A) (A) (A) (A) (A) (A) (A)
                 (A) (A) (A) (A) (A) (A) (A) (A) (A) (A) (A) (A)
                 (A) (A) (A) (A) (A) (A) (A) (A) (A) (A) (A) (A)
                 (A) (A) (A) (A) (A) (A) (A) (A) (A) (A) (A) (A)
                 (A) (A) (A) (A) (A) (A) (A) (A) (A) (A) (A) (A)
                 (A) (A) (A) (A) (A) (A) (A) (A) (A) (A) (A) (A)
                 (A) (A) (A) (A) (A) (A) (A) (A) (A) (A) (A) (A)
                 (A) (A) (A) (A) (A) (A) (A) (A) (A) (A) (A) (A)
                 (A) (A) (A) (A) (A) (A) (A) (A) (A) (A) (A) (A)
                 (A) (A) (A) (A) (A) (A) (A) (A) (A) (A) (A) (A)
                 (A) (A) (A) (A) (A) (A) (A) (A) (A) (A) (A) (A)
                 (A) (A) (A) (A) (A) (A) (A) (A) (A) (A) (A) (A)
                 (A) (A) (A) (A) (A) (A) (A) (A) (A) (A) (A) (A)
                 (A) (A) (A) (A) (A) (A) (A) (A) (A) (A) (A) (A)
                 (A) (A) (A) (A) (A) (A) (A) (A) (A) (A) (A) (A)
                 (A) (A) (A) (A) (A) (A) (A) (A) (A) (A) (A) (A)
                 (A) (A) (A) (A) (A) (A) (A) (A) (A) (A) (A) (A)
                 (A) (A) (A) (A) (A) (A) (A) (A) (A) (A) (A) (A)
                 (A) (A) (A) (A) (A) (A) (A) (A) (A) (A) (A) (A)
                 (A) (A) (A) (A) (A) (A) (A)
 The electronic state is 1-A.
 Alpha  occ. eigenvalues --  -19.41440 -19.40452 -14.67591 -14.55114 -10.50911
 Alpha  occ. eigenvalues --  -10.49974 -10.47486 -10.46714 -10.46503 -10.45347
 Alpha  occ. eigenvalues --  -10.41843 -10.41675 -10.40754 -10.39657  -1.26166
 Alpha  occ. eigenvalues --   -1.25639  -1.24275  -1.15087  -1.07842  -1.04138
 Alpha  occ. eigenvalues --   -0.99284  -0.95105  -0.90424  -0.88900  -0.87082
 Alpha  occ. eigenvalues --   -0.82225  -0.78780  -0.77760  -0.76177  -0.76147
 Alpha  occ. eigenvalues --   -0.73976  -0.73471  -0.70426  -0.68941  -0.68721
 Alpha  occ. eigenvalues --   -0.67302  -0.64595  -0.64431  -0.63020  -0.61868
 Alpha  occ. eigenvalues --   -0.61350  -0.60585  -0.58825  -0.57585  -0.56387
 Alpha  occ. eigenvalues --   -0.54765  -0.54424  -0.54340  -0.54141  -0.52659
 Alpha  occ. eigenvalues --   -0.52531  -0.51649  -0.48749  -0.40967
 Alpha virt. eigenvalues --   -0.13934  -0.10133  -0.07119  -0.05477  -0.04629
 Alpha virt. eigenvalues --   -0.04479  -0.03548  -0.03113  -0.03013  -0.02624
 Alpha virt. eigenvalues --   -0.01677  -0.01344  -0.01210  -0.00805  -0.00282
 Alpha virt. eigenvalues --    0.00040   0.00672   0.00988   0.01670   0.01956
 Alpha virt. eigenvalues --    0.02176   0.02909   0.02949   0.03171   0.03538
 Alpha virt. eigenvalues --    0.03994   0.04369   0.04534   0.05055   0.05232
 Alpha virt. eigenvalues --    0.05538   0.05998   0.06065   0.06384   0.06721
 Alpha virt. eigenvalues --    0.07072   0.07406   0.07788   0.08029   0.08317
 Alpha virt. eigenvalues --    0.08617   0.08936   0.09191   0.09452   0.09767
 Alpha virt. eigenvalues --    0.10003   0.10327   0.11035   0.11114   0.11377
 Alpha virt. eigenvalues --    0.11862   0.12029   0.12462   0.12647   0.12772
 Alpha virt. eigenvalues --    0.13042   0.13487   0.13934   0.14256   0.14611
 Alpha virt. eigenvalues --    0.14827   0.15477   0.15693   0.15783   0.16092
 Alpha virt. eigenvalues --    0.16756   0.16978   0.17047   0.17612   0.17739
 Alpha virt. eigenvalues --    0.18102   0.18299   0.18711   0.19009   0.19455
 Alpha virt. eigenvalues --    0.19692   0.20109   0.20560   0.20927   0.20958
 Alpha virt. eigenvalues --    0.21491   0.22220   0.22558   0.22983   0.23259
 Alpha virt. eigenvalues --    0.23690   0.24097   0.24406   0.24809   0.25015
 Alpha virt. eigenvalues --    0.25270   0.25891   0.26385   0.26977   0.27126
 Alpha virt. eigenvalues --    0.27693   0.28022   0.28496   0.29076   0.29464
 Alpha virt. eigenvalues --    0.29820   0.29903   0.30489   0.30946   0.31973
 Alpha virt. eigenvalues --    0.32253   0.32786   0.33063   0.33457   0.33927
 Alpha virt. eigenvalues --    0.34792   0.35297   0.35468   0.35541   0.35737
 Alpha virt. eigenvalues --    0.36065   0.36730   0.37112   0.37572   0.37953
 Alpha virt. eigenvalues --    0.38554   0.39041   0.39422   0.40555   0.40613
 Alpha virt. eigenvalues --    0.40984   0.41191   0.42443   0.42658   0.42756
 Alpha virt. eigenvalues --    0.42969   0.43605   0.43733   0.43939   0.44330
 Alpha virt. eigenvalues --    0.45041   0.45546   0.46117   0.46511   0.47421
 Alpha virt. eigenvalues --    0.47981   0.48177   0.48631   0.48929   0.49276
 Alpha virt. eigenvalues --    0.49819   0.50090   0.50513   0.50802   0.51093
 Alpha virt. eigenvalues --    0.51430   0.51793   0.52227   0.52416   0.53297
 Alpha virt. eigenvalues --    0.53308   0.54070   0.54693   0.55009   0.55288
 Alpha virt. eigenvalues --    0.55740   0.56377   0.56703   0.57059   0.57391
 Alpha virt. eigenvalues --    0.58231   0.58582   0.58961   0.59595   0.60067
 Alpha virt. eigenvalues --    0.60256   0.60691   0.61214   0.62108   0.62502
 Alpha virt. eigenvalues --    0.62825   0.63332   0.63656   0.64055   0.64516
 Alpha virt. eigenvalues --    0.64597   0.65530   0.66091   0.67000   0.67305
 Alpha virt. eigenvalues --    0.67684   0.68080   0.68462   0.68624   0.69561
 Alpha virt. eigenvalues --    0.69772   0.70624   0.70850   0.71084   0.72200
 Alpha virt. eigenvalues --    0.72689   0.73023   0.73588   0.74117   0.74507
 Alpha virt. eigenvalues --    0.75329   0.75498   0.76745   0.77037   0.77407
 Alpha virt. eigenvalues --    0.77603   0.78689   0.78804   0.79570   0.80296
 Alpha virt. eigenvalues --    0.81269   0.81682   0.82494   0.82914   0.83929
 Alpha virt. eigenvalues --    0.84926   0.86032   0.86204   0.86294   0.87835
 Alpha virt. eigenvalues --    0.88093   0.88532   0.90036   0.90238   0.91155
 Alpha virt. eigenvalues --    0.92556   0.92610   0.94046   0.95377   0.95472
 Alpha virt. eigenvalues --    0.96096   0.96335   0.97879   0.98967   0.99759
 Alpha virt. eigenvalues --    1.00610   1.01482   1.02487   1.03213   1.03902
 Alpha virt. eigenvalues --    1.04917   1.05592   1.05742   1.06773   1.07928
 Alpha virt. eigenvalues --    1.09494   1.10021   1.10403   1.12095   1.13415
 Alpha virt. eigenvalues --    1.13843   1.15530   1.16182   1.17395   1.17520
 Alpha virt. eigenvalues --    1.20254   1.20799   1.21537   1.23607   1.24048
 Alpha virt. eigenvalues --    1.24505   1.26458   1.27309   1.28701   1.29013
 Alpha virt. eigenvalues --    1.31624   1.32664   1.33012   1.34228   1.34411
 Alpha virt. eigenvalues --    1.35053   1.36349   1.36746   1.37794   1.38781
 Alpha virt. eigenvalues --    1.39907   1.40403   1.41392   1.42590   1.43816
 Alpha virt. eigenvalues --    1.45019   1.45307   1.47195   1.47765   1.48964
 Alpha virt. eigenvalues --    1.49105   1.49901   1.51387   1.52041   1.53698
 Alpha virt. eigenvalues --    1.54718   1.55929   1.57690   1.59219   1.59307
 Alpha virt. eigenvalues --    1.60636   1.60871   1.62455   1.63848   1.64219
 Alpha virt. eigenvalues --    1.64686   1.66219   1.66787   1.67343   1.67784
 Alpha virt. eigenvalues --    1.68715   1.70065   1.71528   1.71890   1.72461
 Alpha virt. eigenvalues --    1.72707   1.74471   1.75157   1.77109   1.77335
 Alpha virt. eigenvalues --    1.77498   1.78769   1.80103   1.81381   1.81547
 Alpha virt. eigenvalues --    1.81817   1.82707   1.83898   1.85070   1.85332
 Alpha virt. eigenvalues --    1.86147   1.87605   1.88319   1.89286   1.89375
 Alpha virt. eigenvalues --    1.90295   1.92197   1.92675   1.93663   1.94379
 Alpha virt. eigenvalues --    1.95254   1.96454   1.96966   1.97379   1.99236
 Alpha virt. eigenvalues --    1.99423   2.00276   2.02523   2.02795   2.03529
 Alpha virt. eigenvalues --    2.05117   2.05400   2.08402   2.09045   2.09453
 Alpha virt. eigenvalues --    2.10646   2.11963   2.13134   2.13578   2.14612
 Alpha virt. eigenvalues --    2.15124   2.16348   2.17468   2.17758   2.19717
 Alpha virt. eigenvalues --    2.20553   2.21114   2.21983   2.23632   2.23952
 Alpha virt. eigenvalues --    2.25916   2.27555   2.28110   2.29157   2.30449
 Alpha virt. eigenvalues --    2.32064   2.33578   2.34159   2.34973   2.35908
 Alpha virt. eigenvalues --    2.38254   2.38866   2.41902   2.42406   2.44152
 Alpha virt. eigenvalues --    2.44885   2.46577   2.46887   2.47508   2.50399
 Alpha virt. eigenvalues --    2.50813   2.51644   2.53318   2.54306   2.55755
 Alpha virt. eigenvalues --    2.56805   2.57852   2.59393   2.62001   2.62641
 Alpha virt. eigenvalues --    2.64367   2.64601   2.65496   2.66506   2.67580
 Alpha virt. eigenvalues --    2.69645   2.72999   2.73632   2.74998   2.77707
 Alpha virt. eigenvalues --    2.78318   2.80379   2.81075   2.81638   2.82817
 Alpha virt. eigenvalues --    2.83669   2.85666   2.87035   2.88705   2.90797
 Alpha virt. eigenvalues --    2.97616   3.02054   3.02896   3.07783   3.10823
 Alpha virt. eigenvalues --    3.13886   3.21056   3.27551   3.30417   3.31288
 Alpha virt. eigenvalues --    3.35431   3.41937   3.47067   3.48380   3.48826
 Alpha virt. eigenvalues --    3.59717   3.60495   3.65808   3.78552   3.88176
 Alpha virt. eigenvalues --    3.89026   4.02405   4.06086   4.39109
          Condensed to atoms (all electrons):
               1          2          3          4          5          6
     1  N    8.857379  -1.456023  -0.326013  -0.079265   0.224505   0.381337
     2  C   -1.456023  16.310984   0.083373  -0.720016  -0.284449  -2.255786
     3  C   -0.326013   0.083373   5.911835  -0.085254   0.031883   0.110084
     4  C   -0.079265  -0.720016  -0.085254   5.818372   0.217056   0.382357
     5  C    0.224505  -0.284449   0.031883   0.217056   5.321102  -0.024321
     6  C    0.381337  -2.255786   0.110084   0.382357  -0.024321  19.090946
     7  C    0.158174  -2.630635  -0.538803   0.360195  -0.262059  -3.156992
     8  N    0.014698   0.361065   0.050937  -0.054664   0.029388   0.158156
     9  C   -0.077646  -0.242678  -0.159664  -0.033037  -0.016787  -2.243607
    10  C    0.038805  -0.125578   0.198180   0.028963  -0.005134   1.793213
    11  C   -0.298498  -2.005187  -0.104093  -0.352941   0.063373  -9.555279
    12  O    0.001215  -0.003590  -0.000904  -0.000018  -0.000319  -0.116824
    13  H   -0.356706   0.238483   0.058991   0.042808  -0.126276  -0.098838
    14  H    0.022288   0.181379   0.096738  -0.067549   0.069835  -0.107295
    15  H    0.126647  -0.347635   0.077249  -0.305038   0.041942   0.195679
    16  H    0.051011   0.027787  -0.345865  -0.012591  -0.148289   0.404374
    17  H    0.058352  -0.201309  -0.290940   0.195010   0.064868  -0.402476
    18  H    0.160041  -0.319114   0.080743  -0.129962  -0.174141   0.147234
    19  H   -0.106257  -1.369228   0.214998   0.099766  -0.004584   0.288065
    20  H   -0.331662   0.537056   0.019627   0.016766   0.023470  -0.221033
    21  H    0.003725  -0.001948   0.007330  -0.000151  -0.000808   0.103942
    22  H   -0.001256  -0.024924  -0.011782   0.002850   0.000272  -0.295134
    23  H    0.060721  -0.299252   0.042708   0.023509  -0.013779   0.981006
    24  C    0.438449  -0.138443  -0.027938  -0.028030  -0.196646   0.001594
    25  H   -0.007446  -0.051590  -0.028760   0.003285   0.004153  -0.459029
    26  H    0.000603  -0.001499  -0.000080  -0.000009   0.000352  -0.002277
    27  H    0.000150   0.001622   0.000589   0.000087  -0.000302   0.008109
    28  O   -0.000027   0.000419   0.000021  -0.000005  -0.000024   0.002439
    29  H   -0.000014   0.000060   0.000005  -0.000004  -0.000010   0.000466
    30  H   -0.000045   0.000210   0.000011   0.000004   0.000005   0.000632
    31  H   -0.004797  -0.006945  -0.020739   0.031749  -0.133394   0.167418
    32  H    0.009071  -0.001250   0.019450  -0.000401   0.125347  -0.000414
    33  H   -0.222700  -0.057886   0.015842  -0.017192   0.031940  -0.038818
               7          8          9         10         11         12
     1  N    0.158174   0.014698  -0.077646   0.038805  -0.298498   0.001215
     2  C   -2.630635   0.361065  -0.242678  -0.125578  -2.005187  -0.003590
     3  C   -0.538803   0.050937  -0.159664   0.198180  -0.104093  -0.000904
     4  C    0.360195  -0.054664  -0.033037   0.028963  -0.352941  -0.000018
     5  C   -0.262059   0.029388  -0.016787  -0.005134   0.063373  -0.000319
     6  C   -3.156992   0.158156  -2.243607   1.793213  -9.555279  -0.116824
     7  C   15.046012  -1.078531  -0.500453  -1.108945  -1.430867   0.089104
     8  N   -1.078531   7.469632   0.482786  -0.043513  -0.023340  -0.176920
     9  C   -0.500453   0.482786   9.600208  -2.460165   1.830759   0.057396
    10  C   -1.108945  -0.043513  -2.460165  11.677622  -4.091094  -0.057921
    11  C   -1.430867  -0.023340   1.830759  -4.091094  22.350006   0.054952
    12  O    0.089104  -0.176920   0.057396  -0.057921   0.054952   7.915806
    13  H    0.016639   0.006856   0.002743  -0.004393  -0.001149  -0.000179
    14  H   -0.031472   0.001322  -0.004093   0.006328   0.011651  -0.000000
    15  H    0.054078  -0.008768   0.015182  -0.015413   0.014237   0.000539
    16  H    0.054210  -0.003793   0.001187  -0.001361  -0.047316  -0.000020
    17  H    0.111942  -0.004472   0.009526   0.012332   0.022791  -0.000041
    18  H   -0.030772  -0.002524   0.000361   0.004286   0.013286  -0.000025
    19  H    0.076930  -0.008032  -0.006308   0.043951   0.056328  -0.000075
    20  H   -0.823151  -0.011291  -0.036429   0.036975  -0.120507  -0.004825
    21  H    0.201740  -0.056003  -0.818523   0.278748   0.035127  -0.000905
    22  H    0.026655  -0.029507   0.467055  -1.148920   0.751054  -0.001141
    23  H    0.162491  -0.069957  -0.222236   0.759314  -2.136414   0.001104
    24  C    0.101838  -0.018810  -0.012951   0.001162  -0.121607  -0.000067
    25  H    0.352886  -0.027011  -0.319378  -0.158423   0.081126   0.020137
    26  H    0.002097   0.004824  -0.004635  -0.001290   0.004753   0.330640
    27  H    0.000499   0.001485  -0.009644   0.009712  -0.004408   0.360611
    28  O   -0.006115   0.001488   0.007866   0.001369  -0.000469  -0.036876
    29  H    0.000395   0.000256  -0.001097   0.000040  -0.000172   0.001847
    30  H   -0.001737   0.000440   0.000027   0.000535  -0.000429   0.001398
    31  H    0.051879  -0.009095  -0.007244   0.010367  -0.076237   0.000054
    32  H   -0.035015   0.000471  -0.000615  -0.000845   0.023286   0.000030
    33  H    0.036610  -0.002568   0.002498  -0.004103   0.020071   0.000033
              13         14         15         16         17         18
     1  N   -0.356706   0.022288   0.126647   0.051011   0.058352   0.160041
     2  C    0.238483   0.181379  -0.347635   0.027787  -0.201309  -0.319114
     3  C    0.058991   0.096738   0.077249  -0.345865  -0.290940   0.080743
     4  C    0.042808  -0.067549  -0.305038  -0.012591   0.195010  -0.129962
     5  C   -0.126276   0.069835   0.041942  -0.148289   0.064868  -0.174141
     6  C   -0.098838  -0.107295   0.195679   0.404374  -0.402476   0.147234
     7  C    0.016639  -0.031472   0.054078   0.054210   0.111942  -0.030772
     8  N    0.006856   0.001322  -0.008768  -0.003793  -0.004472  -0.002524
     9  C    0.002743  -0.004093   0.015182   0.001187   0.009526   0.000361
    10  C   -0.004393   0.006328  -0.015413  -0.001361   0.012332   0.004286
    11  C   -0.001149   0.011651   0.014237  -0.047316   0.022791   0.013286
    12  O   -0.000179  -0.000000   0.000539  -0.000020  -0.000041  -0.000025
    13  H    2.254479  -0.005596  -0.176389  -0.005487   0.000941  -0.396337
    14  H   -0.005596   1.790573  -0.428427  -0.186183   0.022976  -0.150067
    15  H   -0.176389  -0.428427   2.065675   0.146723  -0.175061   0.134616
    16  H   -0.005487  -0.186183   0.146723   2.187997  -0.583335   0.049905
    17  H    0.000941   0.022976  -0.175061  -0.583335   2.537551   0.006071
    18  H   -0.396337  -0.150067   0.134616   0.049905   0.006071   2.028689
    19  H    0.022423   0.028453  -0.038192  -0.248188   0.141882  -0.029321
    20  H    0.017068   0.002069  -0.041544  -0.009122   0.034063   0.012551
    21  H    0.000031  -0.000052  -0.000059   0.000780   0.000016   0.000023
    22  H   -0.000100   0.000262   0.000492  -0.000997  -0.004015   0.000032
    23  H   -0.000594  -0.000618   0.008431   0.019825  -0.059426   0.000706
    24  C   -0.032875  -0.002245   0.024255   0.017349  -0.009017   0.045300
    25  H   -0.002743   0.000869  -0.000483  -0.001468   0.004316   0.000251
    26  H   -0.000161  -0.000012   0.000048   0.000039  -0.000045   0.000063
    27  H    0.000165   0.000007   0.000025   0.000008  -0.000030  -0.000044
    28  O    0.000018  -0.000001  -0.000019   0.000000   0.000011  -0.000005
    29  H    0.000007  -0.000000  -0.000008  -0.000001   0.000003  -0.000001
    30  H    0.000005   0.000000  -0.000001   0.000000  -0.000000  -0.000002
    31  H   -0.010692  -0.003020   0.009662   0.006748  -0.007946   0.006678
    32  H    0.010409   0.006755  -0.009560  -0.005339   0.005014   0.025161
    33  H    0.010117  -0.002503   0.002167   0.003730   0.000114  -0.021679
              19         20         21         22         23         24
     1  N   -0.106257  -0.331662   0.003725  -0.001256   0.060721   0.438449
     2  C   -1.369228   0.537056  -0.001948  -0.024924  -0.299252  -0.138443
     3  C    0.214998   0.019627   0.007330  -0.011782   0.042708  -0.027938
     4  C    0.099766   0.016766  -0.000151   0.002850   0.023509  -0.028030
     5  C   -0.004584   0.023470  -0.000808   0.000272  -0.013779  -0.196646
     6  C    0.288065  -0.221033   0.103942  -0.295134   0.981006   0.001594
     7  C    0.076930  -0.823151   0.201740   0.026655   0.162491   0.101838
     8  N   -0.008032  -0.011291  -0.056003  -0.029507  -0.069957  -0.018810
     9  C   -0.006308  -0.036429  -0.818523   0.467055  -0.222236  -0.012951
    10  C    0.043951   0.036975   0.278748  -1.148920   0.759314   0.001162
    11  C    0.056328  -0.120507   0.035127   0.751054  -2.136414  -0.121607
    12  O   -0.000075  -0.004825  -0.000905  -0.001141   0.001104  -0.000067
    13  H    0.022423   0.017068   0.000031  -0.000100  -0.000594  -0.032875
    14  H    0.028453   0.002069  -0.000052   0.000262  -0.000618  -0.002245
    15  H   -0.038192  -0.041544  -0.000059   0.000492   0.008431   0.024255
    16  H   -0.248188  -0.009122   0.000780  -0.000997   0.019825   0.017349
    17  H    0.141882   0.034063   0.000016  -0.004015  -0.059426  -0.009017
    18  H   -0.029321   0.012551   0.000023   0.000032   0.000706   0.045300
    19  H    2.280682   0.048360  -0.002109  -0.003032  -0.049083   0.001233
    20  H    0.048360   2.956980   0.015895  -0.001446  -0.033958  -0.037940
    21  H   -0.002109   0.015895   2.146743  -0.119630  -0.010643   0.000006
    22  H   -0.003032  -0.001446  -0.119630   2.072058  -0.134120   0.000883
    23  H   -0.049083  -0.033958  -0.010643  -0.134120   2.805760   0.009443
    24  C    0.001233  -0.037940   0.000006   0.000883   0.009443   4.518835
    25  H    0.001497  -0.068527  -0.143814   0.013101   0.010971  -0.001369
    26  H   -0.000140   0.001163   0.000359  -0.000005   0.000033  -0.000281
    27  H    0.000030   0.001537   0.005893  -0.000218  -0.000095   0.000189
    28  O    0.000006   0.002454   0.001929  -0.000008  -0.000022  -0.000001
    29  H    0.000005   0.000103   0.000017   0.000006  -0.000007   0.000010
    30  H    0.000004  -0.000457  -0.000051   0.000006  -0.000009   0.000010
    31  H    0.015065  -0.013147   0.000743   0.000435  -0.002066   0.308733
    32  H   -0.016615  -0.003581  -0.000025  -0.000013   0.002760   0.121489
    33  H    0.001679   0.009558  -0.000052  -0.000055   0.001519   0.380196
              25         26         27         28         29         30
     1  N   -0.007446   0.000603   0.000150  -0.000027  -0.000014  -0.000045
     2  C   -0.051590  -0.001499   0.001622   0.000419   0.000060   0.000210
     3  C   -0.028760  -0.000080   0.000589   0.000021   0.000005   0.000011
     4  C    0.003285  -0.000009   0.000087  -0.000005  -0.000004   0.000004
     5  C    0.004153   0.000352  -0.000302  -0.000024  -0.000010   0.000005
     6  C   -0.459029  -0.002277   0.008109   0.002439   0.000466   0.000632
     7  C    0.352886   0.002097   0.000499  -0.006115   0.000395  -0.001737
     8  N   -0.027011   0.004824   0.001485   0.001488   0.000256   0.000440
     9  C   -0.319378  -0.004635  -0.009644   0.007866  -0.001097   0.000027
    10  C   -0.158423  -0.001290   0.009712   0.001369   0.000040   0.000535
    11  C    0.081126   0.004753  -0.004408  -0.000469  -0.000172  -0.000429
    12  O    0.020137   0.330640   0.360611  -0.036876   0.001847   0.001398
    13  H   -0.002743  -0.000161   0.000165   0.000018   0.000007   0.000005
    14  H    0.000869  -0.000012   0.000007  -0.000001  -0.000000   0.000000
    15  H   -0.000483   0.000048   0.000025  -0.000019  -0.000008  -0.000001
    16  H   -0.001468   0.000039   0.000008   0.000000  -0.000001   0.000000
    17  H    0.004316  -0.000045  -0.000030   0.000011   0.000003  -0.000000
    18  H    0.000251   0.000063  -0.000044  -0.000005  -0.000001  -0.000002
    19  H    0.001497  -0.000140   0.000030   0.000006   0.000005   0.000004
    20  H   -0.068527   0.001163   0.001537   0.002454   0.000103  -0.000457
    21  H   -0.143814   0.000359   0.005893   0.001929   0.000017  -0.000051
    22  H    0.013101  -0.000005  -0.000218  -0.000008   0.000006   0.000006
    23  H    0.010971   0.000033  -0.000095  -0.000022  -0.000007  -0.000009
    24  C   -0.001369  -0.000281   0.000189  -0.000001   0.000010   0.000010
    25  H    1.746483  -0.002562  -0.015834  -0.016522   0.001490   0.002715
    26  H   -0.002562   0.535432  -0.108050  -0.004124  -0.002913  -0.002626
    27  H   -0.015834  -0.108050   0.602499   0.003413  -0.000871  -0.000904
    28  O   -0.016522  -0.004124   0.003413   7.669505   0.356163   0.353981
    29  H    0.001490  -0.002913  -0.000871   0.356163   0.565267  -0.073445
    30  H    0.002715  -0.002626  -0.000904   0.353981  -0.073445   0.564573
    31  H   -0.004419   0.000044   0.000058   0.000020  -0.000002  -0.000004
    32  H    0.001092   0.000044  -0.000008   0.000003  -0.000001  -0.000000
    33  H    0.001732  -0.000122  -0.000034  -0.000022   0.000002  -0.000002
              31         32         33
     1  N   -0.004797   0.009071  -0.222700
     2  C   -0.006945  -0.001250  -0.057886
     3  C   -0.020739   0.019450   0.015842
     4  C    0.031749  -0.000401  -0.017192
     5  C   -0.133394   0.125347   0.031940
     6  C    0.167418  -0.000414  -0.038818
     7  C    0.051879  -0.035015   0.036610
     8  N   -0.009095   0.000471  -0.002568
     9  C   -0.007244  -0.000615   0.002498
    10  C    0.010367  -0.000845  -0.004103
    11  C   -0.076237   0.023286   0.020071
    12  O    0.000054   0.000030   0.000033
    13  H   -0.010692   0.010409   0.010117
    14  H   -0.003020   0.006755  -0.002503
    15  H    0.009662  -0.009560   0.002167
    16  H    0.006748  -0.005339   0.003730
    17  H   -0.007946   0.005014   0.000114
    18  H    0.006678   0.025161  -0.021679
    19  H    0.015065  -0.016615   0.001679
    20  H   -0.013147  -0.003581   0.009558
    21  H    0.000743  -0.000025  -0.000052
    22  H    0.000435  -0.000013  -0.000055
    23  H   -0.002066   0.002760   0.001519
    24  C    0.308733   0.121489   0.380196
    25  H   -0.004419   0.001092   0.001732
    26  H    0.000044   0.000044  -0.000122
    27  H    0.000058  -0.000008  -0.000034
    28  O    0.000020   0.000003  -0.000022
    29  H   -0.000002  -0.000001   0.000002
    30  H   -0.000004  -0.000000  -0.000002
    31  H    1.715387  -0.304972  -0.460056
    32  H   -0.304972   1.365578  -0.253555
    33  H   -0.460056  -0.253555   1.765459
 Mulliken charges:
               1
     1  N   -0.338816
     2  C    0.802526
     3  C    0.920241
     4  C    0.663349
     5  C    1.141829
     6  C    0.761070
     7  C    0.731171
     8  N    0.044995
     9  C    0.699592
    10  C    0.325195
    11  C    1.037206
    12  O   -0.434217
    13  H   -0.463667
    14  H   -0.252374
    15  H   -0.371053
    16  H   -0.372320
    17  H   -0.489663
    18  H   -0.462003
    19  H   -0.440195
    20  H   -0.977077
    21  H   -0.648272
    22  H   -0.558861
    23  H   -0.858022
    24  C    0.657249
    25  H    0.063273
    26  H    0.250336
    27  H    0.143753
    28  O   -0.336866
    29  H    0.152404
    30  H    0.155157
    31  H   -0.260267
    32  H   -0.083750
    33  H   -0.201923
 Sum of Mulliken charges =   1.00000
 Mulliken charges with hydrogens summed into heavy atoms:
               1
     1  N   -0.338816
     2  C    0.362331
     3  C    0.058258
     4  C    0.039921
     5  C    0.216159
     6  C    0.761070
     7  C   -0.245906
     8  N    0.108268
     9  C    0.051321
    10  C   -0.233667
    11  C    0.179184
    12  O   -0.040128
    24  C    0.111309
    28  O   -0.029305
 APT charges:
               1
     1  N   -1.221191
     2  C    1.245485
     3  C    0.187478
     4  C    0.407125
     5  C    0.203752
     6  C   -1.006054
     7  C    0.469288
     8  N   -0.532660
     9  C    0.442234
    10  C    0.426844
    11  C   -0.151767
    12  O   -1.737674
    13  H   -0.101117
    14  H    0.168987
    15  H    0.071506
    16  H    0.004469
    17  H   -0.068331
    18  H   -0.081996
    19  H    0.204749
    20  H   -0.388763
    21  H    0.215553
    22  H    0.131566
    23  H   -0.218675
    24  C   -0.171346
    25  H    0.168297
    26  H    0.884586
    27  H    0.884097
    28  O   -2.288737
    29  H    1.348263
    30  H    0.850917
    31  H    0.293845
    32  H    0.213482
    33  H    0.145790
 Sum of APT charges =   1.00000
 APT charges with hydrogens summed into heavy atoms:
               1
     1  N   -1.221191
     2  C    1.450234
     3  C    0.123616
     4  C    0.647619
     5  C    0.020639
     6  C   -1.006054
     7  C    0.080525
     8  N   -0.364364
     9  C    0.657786
    10  C    0.558410
    11  C   -0.370442
    12  O    0.031009
    24  C    0.481771
    28  O   -0.089557
 Electronic spatial extent (au):  <R**2>=           4397.6500
 Charge=              1.0000 electrons
 Dipole moment (field-independent basis, Debye):
    X=              6.7767    Y=              1.0027    Z=             -0.0638  Tot=              6.8508
 Quadrupole moment (field-independent basis, Debye-Ang):
   XX=            -14.4529   YY=            -56.4025   ZZ=            -77.6012
   XY=            -11.4942   XZ=              1.6594   YZ=             -1.6457
 Traceless Quadrupole moment (field-independent basis, Debye-Ang):
   XX=             35.0326   YY=             -6.9170   ZZ=            -28.1156
   XY=            -11.4942   XZ=              1.6594   YZ=             -1.6457
 Octapole moment (field-independent basis, Debye-Ang**2):
  XXX=            345.2487  YYY=              3.1921  ZZZ=             16.2404  XYY=             69.6300
  XXY=           -104.5648  XXZ=             -7.0153  XZZ=             25.8615  YZZ=            -12.4208
  YYZ=            -17.4634  XYZ=              9.9139
 Hexadecapole moment (field-independent basis, Debye-Ang**3):
 XXXX=          -1368.4093 YYYY=          -1049.1926 ZZZZ=           -464.8326 XXXY=           -669.8597
 XXXZ=           -157.9223 YYYX=           -152.3276 YYYZ=            -12.9295 ZZZX=             59.1393
 ZZZY=             -5.3734 XXYY=           -485.6220 XXZZ=           -581.9312 YYZZ=           -296.1091
 XXYZ=             57.9721 YYXZ=            -26.4315 ZZXY=            -36.8745
 N-N= 9.139022768328D+02 E-N=-3.332238576820D+03  KE= 6.479597476592D+02
  Exact polarizability:   0.000   0.000   0.000   0.000   0.000   0.000
 Approx polarizability: 168.729   5.032 167.751   7.841  -8.269 131.987
 Calling FoFJK, ICntrl=    100147 FMM=F ISym2X=0 I1Cent= 0 IOpClX= 0 NMat=1 NMatS=1 NMatT=0.
 ***** Axes restored to original set *****
 -------------------------------------------------------------------
 Center     Atomic                   Forces (Hartrees/Bohr)
 Number     Number              X              Y              Z
 -------------------------------------------------------------------
      1        7          -0.002637836   -0.008214901   -0.010375856
      2        6          -0.000377469   -0.001774685    0.005120988
      3        6           0.000345082    0.000037067   -0.000138519
      4        6          -0.000333240   -0.000744719    0.000961172
      5        6           0.003671631    0.007250237    0.003557057
      6        6          -0.000331695   -0.000404616   -0.000929692
      7        6           0.000008472   -0.000066715   -0.000198092
      8        7           0.000089305    0.000045279   -0.000130175
      9        6           0.000030664   -0.000024419    0.000059539
     10        6          -0.000046367   -0.000019808    0.000027334
     11        6           0.000056818    0.000102409   -0.000057973
     12        8           0.000006565   -0.000045928   -0.000026678
     13        1           0.000233476   -0.000538224   -0.000841289
     14        1          -0.000040702    0.000191699    0.000198764
     15        1          -0.000179646   -0.000016090    0.000065321
     16        1           0.000083832   -0.000013839   -0.000045879
     17        1          -0.000224660    0.000107135    0.000079337
     18        1          -0.001133605    0.000012453   -0.002373839
     19        1          -0.000774803   -0.000558323   -0.001296543
     20        1          -0.000121966   -0.000013744    0.000189380
     21        1          -0.000023192    0.000006262    0.000027473
     22        1           0.000000946   -0.000013830    0.000020214
     23        1           0.000028388   -0.000055081   -0.000016107
     24        6           0.006011104    0.001670930    0.001991567
     25        1          -0.000043229    0.000029468   -0.000024289
     26        1          -0.000001355    0.000015805    0.000024974
     27        1          -0.000001787    0.000009091    0.000009475
     28        8          -0.000031046   -0.000000109   -0.000021498
     29        1           0.000005249   -0.000007503    0.000002355
     30        1           0.000033048    0.000006164    0.000004513
     31        1          -0.006156884   -0.004028435    0.004019845
     32        1           0.004376098   -0.002106366   -0.000508045
     33        1          -0.002521196    0.009163335    0.000625164
 -------------------------------------------------------------------
 Cartesian Forces:  Max     0.010375856 RMS     0.002317807
 FormGI is forming the generalized inverse of G from B-inverse, IUseBI=4.

 GradGradGradGradGradGradGradGradGradGradGradGradGradGradGradGradGradGrad
 Berny optimization.
 Internal  Forces:  Max     0.009483325 RMS     0.001382042
 Search for a local minimum.
 Step number   1 out of a maximum of  188
 All quantities printed in internal units (Hartrees-Bohrs-Radians)
 Mixed Optimization -- RFO/linear search
 Second derivative matrix not updated -- analytic derivatives used.
 ITU=  0
     Eigenvalues ---    0.00038   0.00054   0.00068   0.00071   0.00169
     Eigenvalues ---    0.00224   0.00427   0.00440   0.00901   0.01025
     Eigenvalues ---    0.01233   0.01319   0.01406   0.01539   0.01608
     Eigenvalues ---    0.01735   0.01854   0.01957   0.02048   0.02126
     Eigenvalues ---    0.02165   0.02478   0.02591   0.02633   0.02816
     Eigenvalues ---    0.02939   0.03099   0.03104   0.04035   0.04122
     Eigenvalues ---    0.04490   0.04707   0.05168   0.05569   0.05653
     Eigenvalues ---    0.05984   0.06051   0.06094   0.06440   0.06736
     Eigenvalues ---    0.07646   0.09097   0.09344   0.09664   0.10120
     Eigenvalues ---    0.10353   0.11103   0.11336   0.12004   0.12436
     Eigenvalues ---    0.12715   0.12904   0.14407   0.16859   0.17492
     Eigenvalues ---    0.19000   0.19698   0.20318   0.20763   0.21254
     Eigenvalues ---    0.22915   0.24882   0.25296   0.27787   0.29756
     Eigenvalues ---    0.30510   0.30668   0.31311   0.31474   0.31746
     Eigenvalues ---    0.32729   0.33066   0.33669   0.34142   0.34467
     Eigenvalues ---    0.34646   0.35036   0.35133   0.35982   0.36252
     Eigenvalues ---    0.37113   0.37256   0.37331   0.38058   0.43577
     Eigenvalues ---    0.44357   0.48689   0.50307   0.52434   0.55114
     Eigenvalues ---    0.55880   0.55915   0.55954
 RFO step:  Lambda=-2.12229124D-03 EMin= 3.81725677D-04
 Linear search not attempted -- first point.
 Iteration  1 RMS(Cart)=  0.08606896 RMS(Int)=  0.00298977
 Iteration  2 RMS(Cart)=  0.00477887 RMS(Int)=  0.00020069
 Iteration  3 RMS(Cart)=  0.00000926 RMS(Int)=  0.00020051
 Iteration  4 RMS(Cart)=  0.00000000 RMS(Int)=  0.00020051
 Variable       Old X    -DE/DX   Delta X   Delta X   Delta X     New X
                                 (Linear)    (Quad)   (Total)
    R1        2.76712  -0.00093   0.00000  -0.00607  -0.00633   2.76079
    R2        2.78420  -0.00247   0.00000  -0.01708  -0.01710   2.76710
    R3        2.77474  -0.00745   0.00000  -0.03452  -0.03452   2.74021
    R4        2.92853  -0.00027   0.00000   0.00090   0.00074   2.92927
    R5        2.87628  -0.00074   0.00000  -0.00350  -0.00350   2.87278
    R6        2.07932   0.00115   0.00000   0.00712   0.00712   2.08644
    R7        2.89207  -0.00092   0.00000   0.00154   0.00166   2.89373
    R8        2.07346  -0.00006   0.00000  -0.00066  -0.00066   2.07280
    R9        2.07143   0.00010   0.00000  -0.00006  -0.00006   2.07137
   R10        2.88234  -0.00053   0.00000  -0.00560  -0.00530   2.87704
   R11        2.06886   0.00010   0.00000  -0.00003  -0.00003   2.06883
   R12        2.07759  -0.00010   0.00000  -0.00114  -0.00114   2.07645
   R13        2.07219   0.00025   0.00000   0.00125   0.00125   2.07345
   R14        2.08316   0.00204   0.00000   0.00914   0.00914   2.09230
   R15        2.61941  -0.00006   0.00000  -0.00003  -0.00003   2.61939
   R16        2.64490   0.00001   0.00000   0.00025   0.00025   2.64515
   R17        2.53844   0.00005   0.00000   0.00016   0.00016   2.53859
   R18        2.05459   0.00002   0.00000   0.00006   0.00006   2.05466
   R19        2.53460  -0.00002   0.00000  -0.00011  -0.00011   2.53449
   R20        1.98034  -0.00004   0.00000  -0.00019  -0.00019   1.98015
   R21        2.61445   0.00001   0.00000   0.00016   0.00016   2.61461
   R22        2.05438  -0.00001   0.00000  -0.00001  -0.00001   2.05436
   R23        2.63295  -0.00004   0.00000  -0.00027  -0.00027   2.63267
   R24        2.05497  -0.00001   0.00000  -0.00003  -0.00003   2.05494
   R25        2.06172  -0.00005   0.00000  -0.00015  -0.00015   2.06157
   R26        3.08689   0.00001   0.00000   0.00067   0.00067   3.08757
   R27        1.85045  -0.00001   0.00000  -0.00005  -0.00005   1.85040
   R28        1.81336   0.00000   0.00000   0.00002   0.00002   1.81338
   R29        2.09961  -0.00834   0.00000  -0.02470  -0.02470   2.07491
   R30        2.10203  -0.00406   0.00000  -0.01031  -0.01031   2.09171
   R31        2.09951  -0.00948   0.00000  -0.02782  -0.02782   2.07169
   R32        3.27969   0.00001   0.00000   0.00078   0.00078   3.28047
   R33        1.81625   0.00000   0.00000   0.00003   0.00003   1.81629
   R34        1.81616  -0.00001   0.00000   0.00000   0.00000   1.81617
    A1        1.91713  -0.00283   0.00000  -0.01149  -0.01307   1.90407
    A2        1.98805   0.00034   0.00000   0.01390   0.01399   2.00203
    A3        1.96524   0.00310   0.00000   0.03831   0.03871   2.00395
    A4        1.83734   0.00174   0.00000   0.00550   0.00453   1.84187
    A5        1.94211  -0.00053   0.00000   0.00010   0.00023   1.94234
    A6        1.95165  -0.00116   0.00000  -0.00641  -0.00608   1.94557
    A7        1.94710  -0.00021   0.00000   0.01226   0.01275   1.95985
    A8        1.92216  -0.00026   0.00000  -0.00772  -0.00761   1.91455
    A9        1.86501   0.00038   0.00000  -0.00364  -0.00382   1.86119
   A10        1.79900  -0.00022   0.00000   0.00613   0.00534   1.80434
   A11        1.90340  -0.00050   0.00000  -0.00320  -0.00304   1.90035
   A12        1.97438   0.00067   0.00000   0.00034   0.00061   1.97499
   A13        1.91916   0.00031   0.00000  -0.00599  -0.00591   1.91325
   A14        1.98403  -0.00020   0.00000   0.00446   0.00481   1.98884
   A15        1.88222  -0.00008   0.00000  -0.00201  -0.00214   1.88008
   A16        1.78178  -0.00184   0.00000  -0.00862  -0.00908   1.77270
   A17        1.96880   0.00005   0.00000  -0.00264  -0.00251   1.96629
   A18        1.93219   0.00095   0.00000   0.00614   0.00626   1.93845
   A19        1.96872   0.00119   0.00000   0.00418   0.00436   1.97308
   A20        1.92598   0.00007   0.00000  -0.00171  -0.00163   1.92435
   A21        1.88576  -0.00041   0.00000   0.00236   0.00227   1.88803
   A22        1.80022   0.00327   0.00000   0.00266   0.00197   1.80219
   A23        1.92738  -0.00152   0.00000  -0.00517  -0.00498   1.92240
   A24        1.95676  -0.00181   0.00000  -0.00865  -0.00845   1.94831
   A25        1.97213  -0.00032   0.00000   0.00844   0.00864   1.98078
   A26        1.92047  -0.00008   0.00000   0.00645   0.00661   1.92708
   A27        1.88737   0.00045   0.00000  -0.00353  -0.00372   1.88365
   A28        2.11236  -0.00015   0.00000  -0.00035  -0.00035   2.11201
   A29        2.12330   0.00011   0.00000   0.00036   0.00036   2.12365
   A30        2.04743   0.00004   0.00000  -0.00000  -0.00000   2.04743
   A31        2.10597  -0.00003   0.00000  -0.00010  -0.00010   2.10587
   A32        2.11845  -0.00004   0.00000   0.00029   0.00029   2.11874
   A33        2.05873   0.00008   0.00000  -0.00015  -0.00016   2.05857
   A34        2.14432   0.00001   0.00000   0.00006   0.00006   2.14438
   A35        2.07351   0.00003   0.00000   0.00088   0.00088   2.07438
   A36        2.06535  -0.00004   0.00000  -0.00093  -0.00093   2.06442
   A37        2.08495  -0.00000   0.00000   0.00002   0.00002   2.08497
   A38        2.03498   0.00001   0.00000   0.00002   0.00002   2.03501
   A39        2.16325  -0.00001   0.00000  -0.00004  -0.00004   2.16321
   A40        2.07336   0.00001   0.00000  -0.00003  -0.00003   2.07333
   A41        2.09044  -0.00001   0.00000  -0.00010  -0.00010   2.09034
   A42        2.11938   0.00000   0.00000   0.00012   0.00013   2.11951
   A43        2.11032  -0.00001   0.00000   0.00005   0.00005   2.11037
[...]
 840,0.00092686,-0.00445478,-0.00509499,-0.00004612,-0.00160525,0.00083
 965,-0.00008574,0.50844733,0.00004094,0.00013573,0.00004240,-0.0000467
 6,-0.00017390,-0.00006065,-0.00000850,0.00003346,0.00003973,0.00002057
 ,-0.00001798,-0.00000617,-0.00003468,-0.00003753,0.00004003,-0.0000808
 7,0.00006611,-0.00000892,-0.00009759,-0.00028631,0.00002780,0.00053433
 ,-0.00046064,0.00025880,-0.00010177,0.00028243,-0.00006720,0.00020458,
 0.00001646,0.00004370,-0.00004969,-0.00005212,-0.00000501,0.00792622,0
 .00153684,-0.00599286,0.00000537,0.00002653,-0.00000438,0.00000719,0.0
 0001271,-0.00000299,-0.00000619,-0.00000713,0.00000189,0.00001600,0.00
 000747,-0.00000934,-0.00001081,0.00001367,0.00002219,0.00002042,0.0000
 0500,0.00000271,0.00002364,0.00003672,-0.00000244,-0.00002028,-0.00006
 934,-0.00004084,-0.00007150,0.00010187,0.00004124,0.00000031,0.0000064
 1,0.00000585,0.00000587,-0.00000098,0.00000269,0.00000919,-0.00005185,
 -0.00006755,-0.00129345,0.00065708,-0.00054244,-0.00517689,-0.00972720
 ,-0.00005598,0.00086096,-0.00080209,-0.00003188,0.13189027,0.64021954,
 0.00004043,0.00006669,0.00014658,-0.00005557,-0.00014116,-0.00005730,-
 0.00000109,0.00002583,0.00002150,-0.00001891,-0.00000724,-0.00002287,-
 0.00002792,0.00002290,0.00001050,0.00005363,-0.00007069,0.00003603,-0.
 00025330,-0.00030556,-0.00005581,0.00127170,-0.00078575,0.00067637,0.0
 0013326,0.00040557,-0.00004539,0.00011163,-0.00008083,0.00005674,0.000
 02583,0.00001564,-0.00000258,0.01064159,-0.00604507,-0.00468942,-0.000
 00454,0.00000882,-0.00001300,0.00000520,0.00000980,0.00000575,0.000004
 38,-0.00000606,0.00001965,0.00001523,0.00000069,0.00000055,-0.00001438
 ,0.00001992,0.00001814,0.00002350,-0.00000357,0.00001461,0.00004378,0.
 00002035,0.00001246,-0.00010125,-0.00003118,-0.00010357,-0.00003262,0.
 00008070,-0.00011552,0.00003967,-0.00001679,-0.00001141,0.00001189,-0.
 00000660,-0.00000802,0.00007084,-0.00001158,-0.00016882,-0.00281428,0.
 00167111,-0.00162807,-0.00060094,0.00015689,-0.00591085,-0.00003685,-0
 .00005106,0.00090879,-0.12748530,0.09748799,0.06843152,0.00004794,0.00
 001163,-0.00000301,-0.00001232,-0.00001355,-0.00001752,-0.00000587,0.0
 0001059,0.00001016,0.00000523,-0.00000405,-0.00000267,-0.00003115,-0.0
 0001578,0.00001024,-0.00001710,-0.00002482,0.00000620,-0.00003946,-0.0
 0003065,0.00000061,0.00008959,-0.00006761,0.00002226,-0.00001511,0.000
 05512,-0.00001582,0.00002893,0.00001193,0.00000115,-0.00000625,0.00001
 040,-0.00000099,0.00066530,0.00001554,0.00018350,-0.00000209,0.0000029
 7,0.00000025,0.00000548,0.00000310,-0.00000247,-0.00000261,-0.00000045
 ,0.00000350,0.00000699,0.00000091,-0.00000091,-0.00000430,0.00000043,0
 .00000282,0.00001097,-0.00000017,0.00000468,0.00000635,0.00000455,0.00
 000385,-0.00001906,-0.00000515,0.00000522,-0.00001204,0.00003688,0.000
 02690,0.00000052,0.00000456,0.00000479,0.00000187,0.00000173,0.0000023
 6,-0.00002553,-0.00000289,0.00000034,-0.00019945,0.00008021,-0.0000029
 8,-0.00173169,-0.00091921,-0.00062506,-0.00016172,0.00018761,0.0001954
 4,-0.44643078,-0.20144235,0.08846641,0.44612820,0.00001359,-0.00003152
 ,0.00000301,0.00000177,0.00003229,0.00000746,0.00000072,-0.00000336,-0
 .00000687,-0.00000632,0.00000402,-0.00000265,-0.00000311,0.00000555,-0
 .00000628,0.00005605,-0.00007856,0.00001828,-0.00010593,-0.00000039,-0
 .00003425,0.00019465,-0.00007156,0.00008219,0.00013684,0.00007268,0.00
 003312,-0.00007595,-0.00003810,-0.00000864,0.00003554,0.00004701,0.000
 00348,0.00155457,-0.00214535,-0.00212558,-0.00000240,-0.00000607,-0.00
 000008,0.00000073,-0.00000186,0.00000089,0.00000109,0.00000060,0.00000
 292,-0.00000031,-0.00000166,0.00000296,-0.00000036,-0.00000149,-0.0000
 0429,0.00000024,-0.00000093,0.00000186,0.00000197,-0.00000726,0.000004
 41,-0.00002989,0.00000724,0.00000108,0.00004489,-0.00001061,-0.0000415
 9,0.00001935,-0.00000833,-0.00000098,-0.00000079,-0.00000077,-0.000001
 88,-0.00000743,0.00000928,0.00000362,-0.00036402,0.00032558,-0.0001973
 8,-0.00163380,0.00385585,0.00384718,0.00019181,0.00000225,-0.00005794,
 -0.14825363,-0.12146559,0.01576053,0.19249192,0.13665925,0.00000472,0.
 00000275,-0.00003074,0.00000476,0.00000456,0.00000630,-0.00000165,0.00
 000079,0.00000223,0.00000773,-0.00000150,0.00000374,-0.00000375,-0.000
 01225,0.00000544,-0.00000437,0.00000893,-0.00000649,0.00001084,-0.0000
 0079,0.00001036,-0.00003619,0.00003579,-0.00001949,0.00001178,0.000000
 12,0.00001508,-0.00001052,-0.00000168,-0.00001758,-0.00000829,0.000000
 49,0.00000315,0.00057493,-0.00170530,-0.00155036,0.00000126,0.00000189
 ,0.00000237,0.00000146,-0.00000002,-0.00000156,-0.00000312,0.00000075,
 -0.00000319,-0.00000043,0.00000097,-0.00000141,0.00000081,-0.00000324,
 -0.00000131,-0.00000094,0.00000131,-0.00000252,-0.00000519,0.00000076,
 -0.00000287,0.00000972,-0.00000158,0.00001324,0.00001372,-0.00000623,0
 .00003771,-0.00000301,0.00000329,0.00000940,-0.00000357,0.00000090,0.0
 0000330,-0.00001602,-0.00000272,0.00002927,0.00013229,-0.00012594,0.00
 004753,0.00015287,0.00334315,0.00190292,0.00053135,0.00008952,-0.00008
 376,0.09759329,0.03059435,-0.02455082,-0.08939145,-0.02634171,0.022342
 09,0.00007378,-0.00004822,-0.00002005,-0.00000188,0.00006768,-0.000002
 64,-0.00000661,0.00000050,-0.00000223,-0.00000044,0.00000175,-0.000001
 06,-0.00004184,-0.00001284,0.00000113,0.00001023,-0.00009294,0.0000123
 9,-0.00002580,0.00012545,-0.00002659,-0.00010294,0.00010959,-0.0000659
 7,0.00004375,-0.00004750,0.00002395,-0.00006633,-0.00000506,-0.0000166
 2,0.00002217,0.00005145,0.00000167,-0.00228565,-0.00004444,0.00195914,
 -0.00000801,-0.00000850,0.00000324,0.00000734,-0.00000189,-0.00000303,
 -0.00000272,0.00000202,0.00000530,0.00000410,-0.00000218,0.00000213,-0
 .00000101,-0.00000560,-0.00000565,0.00001103,-0.00000184,0.00000599,0.
 00000028,-0.00001183,0.00000825,-0.00004641,0.00002919,0.00003823,0.00
 001478,-0.00001911,0.00000262,-0.00000158,0.00000162,0.00000087,-0.000
 00086,-0.00000008,0.00000199,-0.00004892,0.00001952,0.00003164,0.00033
 589,-0.00007710,0.00019298,0.00385702,0.00137386,-0.00362518,-0.000202
 66,0.00021873,0.00016540,-0.04976507,0.06683548,0.03047088,0.00170768,
 -0.04425595,-0.00956515,0.04652334,-0.00002678,-0.00005780,-0.00000706
 ,0.00001841,0.00006129,0.00002248,0.00000420,-0.00001299,-0.00001571,-
 0.00001121,0.00000627,0.00000273,0.00001750,0.00002872,-0.00001955,0.0
 0003710,-0.00000499,0.00000569,0.00004103,0.00007770,-0.00000778,-0.00
 016478,0.00011475,-0.00005578,0.00001293,-0.00009744,0.00001287,-0.000
 05581,-0.00000005,-0.00001350,0.00001226,0.00000662,0.00000092,-0.0016
 1006,0.00067765,0.00090379,-0.00000197,-0.00001257,0.00000199,-0.00000
 361,-0.00000421,0.00000224,0.00000328,0.00000319,0.00000049,-0.0000060
 1,-0.00000306,0.00000402,0.00000329,-0.00000526,-0.00000784,-0.0000091
 9,-0.00000305,-0.00000078,-0.00000698,-0.00001404,0.00000157,0.0000222
 6,0.00003166,-0.00000066,0.00001348,-0.00002196,-0.00000891,0.00000026
 ,-0.00000310,-0.00000374,-0.00000052,0.00000185,-0.00000184,0.00001080
 ,0.00003345,0.00001125,0.00035971,-0.00019875,0.00009687,0.00212783,-0
 .00142992,-0.00135496,0.00017010,0.00005862,-0.00013234,0.01366943,-0.
 51002499,-0.10816767,0.00959218,-0.01714511,-0.00589374,-0.02419995,0.
 52795599,0.00001402,-0.00000315,-0.00005428,0.00000955,0.00001911,0.00
 000643,-0.00000418,-0.00000124,-0.00000008,0.00001417,-0.00000181,0.00
 000791,-0.00000777,-0.00002577,0.00000903,0.00000095,0.00000862,-0.000
 00432,0.00000212,-0.00000237,0.00000946,-0.00004949,0.00001821,-0.0000
 1957,0.00001459,-0.00001550,0.00000549,-0.00001523,0.00000151,-0.00000
 568,-0.00000453,0.00000551,-0.00000386,0.00170733,0.00033563,-0.001400
 74,0.00000281,0.00000307,0.00000594,0.00000197,-0.00000090,-0.00000388
 ,-0.00000510,-0.00000049,-0.00000696,-0.00000027,0.00000163,-0.0000021
 9,0.00000161,-0.00000498,-0.00000250,-0.00000165,0.00000372,-0.0000042
 9,-0.00000719,0.00000050,-0.00000284,0.00001456,-0.00000617,0.00003367
 ,0.00000411,-0.00000564,0.00001583,-0.00000230,0.00000154,0.00000564,-
 0.00000270,0.00000196,0.00000436,-0.00003394,0.00000069,0.00005563,0.0
 0018179,-0.00006263,0.00005351,-0.00276038,-0.00173673,0.00159757,0.00
 019080,-0.00050936,-0.00012554,0.01917601,-0.12172564,-0.03299182,0.00
 112130,0.00906312,0.00183854,-0.01956133,0.11462301,0.03098416,-0.0035
 1773,-0.00131502,0.00423871,0.00033312,-0.00145233,0.00026874,-0.00015
 096,-0.00000104,0.00003084,-0.00001061,-0.00045925,0.00014647,0.000952
 56,0.00189780,0.00054158,0.00011685,0.00006725,-0.00000372,0.00010487,
 -0.00008215,0.00014257,0.00004352,0.00022406,-0.00006155,0.00005919,-0
 .00014067,0.00008167,-0.00011438,0.00004765,-0.00012695,0.00014890,0.0
 0033918,0.00008444,-0.00003027,0.00004115,-0.00002389,0.00001646,-0.00
 014028,0.00000837,-0.00000224,0.00010876,0.00010189,-0.00001188,0.0001
 0996,0.00012724,0.00001913,0.00000790,-0.00003269,0.00005692,0.0000826
 7,-0.00001231,0.00049334,0.00009355,-0.00028351,-0.00050537,0.00015164
 ,-0.00039794,-0.00002089,0.00006773,0.00000232,0.00000858,0.00001158,0
 .00000410,0.00000481,0.00000698,-0.00000242,-0.00003484,0.00000784,0.0
 0003549,-0.22307844,-0.10453673,0.06991710,0.00007525,-0.00005787,0.00
 006007,0.00000405,-0.00001191,-0.00000278,-0.00000917,-0.00000567,0.00
 001002,-0.00000588,0.00001550,-0.00000921,0.00000490,-0.00000496,0.000
 00643,-0.00000146,-0.00000745,0.00000659,0.23834381,0.01008161,0.00560
 276,-0.00498257,0.00126866,0.00020659,0.00020917,-0.00005928,0.0002124
 4,0.00025953,0.00028419,0.00038278,-0.00056136,0.00033295,-0.00044248,
 -0.00119049,-0.00040008,-0.00019386,-0.00015072,-0.00029629,0.00004489
 ,-0.00021358,0.00027708,0.00009304,0.00002610,0.00005771,-0.00008964,0
 .00005142,-0.00012770,-0.00002081,-0.00008458,0.00021142,0.00021557,0.
 00003615,0.00004664,-0.00008027,-0.00005464,0.00003036,0.00037272,-0.0
 0027514,-0.00002916,-0.00002819,-0.00014205,0.00003717,0.00000570,-0.0
 0003807,-0.00002703,0.00001097,0.00002209,-0.00002188,0.00002164,0.000
 03343,0.00001704,-0.00011852,-0.00003403,0.00015863,-0.00008050,-0.000
 16220,0.00001676,0.00011496,0.00018146,0.00000159,-0.00000384,-0.00000
 303,0.00000929,0.00001023,-0.00000360,-0.00000135,-0.00001951,0.000003
 45,-0.10681428,-0.11116238,0.04257864,-0.00009707,0.00011017,0.0000167
 6,-0.00000038,0.00003634,0.00006362,-0.00000297,0.00000620,0.00001562,
 -0.00003630,-0.00002937,-0.00005279,0.00001205,0.00001037,0.00000736,0
 .00004249,0.00000024,0.00002720,0.11396251,0.11373907,0.02883927,0.018
 95311,-0.01700212,0.00032320,0.00128728,0.00103206,-0.00001944,0.00036
 186,-0.00014664,0.00176762,0.00090011,-0.00059293,-0.00022251,-0.00475
 679,-0.00405203,0.00002388,-0.00013712,-0.00034280,-0.00001156,-0.0003
 7435,-0.00011141,-0.00026937,-0.00030134,0.00003148,-0.00011989,0.0003
 5571,-0.00014576,0.00036060,-0.00001520,0.00013609,-0.00027432,-0.0005
 0582,-0.00001776,0.00009306,-0.00002756,0.00004531,-0.00022760,0.00004
 268,0.00010307,0.00003358,-0.00040245,-0.00056097,-0.00004882,0.000022
 68,-0.00003840,-0.00003145,-0.00004088,0.00005102,-0.00003833,-0.00010
 104,0.00000796,0.00041634,0.00000383,-0.00001195,-0.00011025,-0.000416
 08,-0.00004412,0.00013534,0.00015250,-0.00034317,-0.00000749,0.0000056
 4,-0.00001489,0.00000362,-0.00000614,-0.00000359,-0.00000105,0.0000495
 2,-0.00000169,0.06446129,0.03713375,-0.07351968,-0.00013792,0.00003107
 ,-0.00006741,-0.00005043,0.00001033,0.00002081,0.00000528,-0.00000027,
 -0.00001994,0.00004160,-0.00000761,-0.00001397,-0.00000738,-0.00000328
 ,0.00000339,-0.00001554,0.00000606,0.00000058,-0.07935593,-0.04305632,
 0.08874631,0.00855888,-0.00313487,0.00215506,0.00148778,-0.00062220,0.
 00148840,0.00000628,-0.00015073,0.00005041,-0.00001087,0.00013798,0.00
 023594,0.00382009,0.00023610,0.00149418,-0.00035073,-0.00035947,0.0001
 0063,-0.00007492,0.00020221,0.00005886,0.00019963,0.00016287,-0.000012
 23,0.00007760,-0.00018715,0.00003946,-0.00021162,-0.00002725,-0.000033
 78,0.00002487,0.00035440,-0.00007648,-0.00009154,0.00000026,-0.0000344
 9,-0.00032894,0.00011665,-0.00009436,-0.00003535,-0.00001857,-0.000080
 88,-0.00013475,0.00003972,0.00007722,0.00005485,-0.00000381,-0.0000147
 2,0.00000643,-0.00006417,0.00004748,0.00025147,0.00065918,-0.00190947,
 -0.00028094,-0.00135913,-0.00112420,0.00020610,0.00016758,0.00023016,0
 .00000921,-0.00000634,0.00000266,-0.00000972,-0.00000331,-0.00001815,0
 .00002100,-0.00002238,-0.00001467,-0.19831115,0.04147217,-0.10824423,0
 .00009233,-0.00001850,0.00007526,0.00006063,-0.00000356,-0.00001953,0.
 00000985,0.00000852,0.00001840,-0.00005858,-0.00000085,0.00001030,0.00
 001335,0.00000713,-0.00000379,0.00002996,-0.00000385,0.00000152,-0.018
 96007,0.00683977,-0.01451274,0.20794365,-0.00745002,0.00155284,-0.0090
 3252,-0.00286763,0.00368865,-0.00269194,0.00003584,0.00009662,0.000134
 94,-0.00013924,0.00010149,0.00009916,0.00055347,-0.00012323,0.00064347
 ,0.00005721,-0.00038779,0.00051801,-0.00006113,-0.00003603,-0.00000538
 ,0.00015756,0.00010802,0.00004689,0.00004935,-0.00014346,0.00003988,-0
 .00012437,-0.00001624,-0.00006813,0.00004642,0.00017921,-0.00001733,0.
 00001886,0.00001411,0.00000451,0.00023355,-0.00008866,-0.00007207,0.00
 002922,0.00000492,0.00006610,-0.00003750,-0.00010727,-0.00001042,0.000
 03385,-0.00001335,0.00001310,-0.00004880,-0.00000343,0.00005946,0.0000
 5268,-0.00009702,0.00024836,0.00062309,0.00013448,0.00145077,0.0000740
 1,-0.00002755,0.00001713,0.00000708,-0.00000549,-0.00001348,-0.0000001
 4,0.00000098,-0.00000914,-0.00000483,-0.00002320,0.00000801,0.04100195
 ,-0.06187640,0.03007055,-0.00000008,0.00001210,0.00001256,-0.00001115,
 -0.00000665,0.00000331,-0.00000582,-0.00000688,-0.00000540,0.00001560,
 0.00000964,-0.00000358,-0.00000397,-0.00000338,0.00000174,-0.00001489,
 -0.00000542,0.00000020,-0.01258831,0.00328606,-0.00913677,-0.04428455,
 0.05862168,-0.01991690,-0.00063927,-0.03949858,-0.00096950,0.00584956,
 0.00040535,-0.00005084,0.00032835,0.00048731,0.00041153,0.00005843,0.0
 0033122,-0.00489329,-0.00204729,0.00176629,0.00006246,-0.00058837,0.00
 037814,-0.00007872,0.00007365,0.00005607,-0.00010562,-0.00016715,0.000
 03383,-0.00001572,-0.00006181,-0.00005290,-0.00004572,-0.00007411,0.00
 001239,-0.00019942,0.00002424,-0.00004538,-0.00008844,0.00004965,0.000
 02752,0.00033837,0.00023380,-0.00006575,0.00020423,-0.00015763,-0.0000
 5031,0.00008523,0.00015090,0.00032453,0.00008881,-0.00006947,-0.000042
 25,-0.00000085,-0.00003047,0.00006944,0.00194575,0.00048929,0.00055660
 ,0.00062161,-0.00180775,0.00097004,0.00047397,0.00011103,-0.00007053,0
 .00000125,-0.00001817,-0.00000737,-0.00001996,-0.00001118,-0.00001948,
 0.00002819,0.00000036,0.00000222,-0.10794933,0.03051615,-0.12627568,0.
 00012321,-0.00007094,0.00002995,0.00003061,-0.00002858,-0.00005675,0.0
 0001338,0.00000173,-0.00000144,-0.00000653,0.00001804,0.00003818,-0.00
 000088,-0.00000212,-0.00000583,-0.00001159,-0.00000339,-0.00001314,0.0
 0761306,-0.00219628,0.00685453,0.12228810,-0.03012004,0.15295022,-0.00
 136097,0.00612032,0.00163661,0.00006514,0.00013834,0.00099709,0.000110
 78,0.00018613,0.00020599,-0.00004356,0.00001906,0.00003037,0.00032006,
 0.00113977,-0.00036634,0.00002123,0.00002696,0.00015236,0.00011407,-0.
 00003540,0.00009998,0.00001827,0.00009452,-0.00004344,0.00003756,-0.00
 006436,0.00003237,-0.00006163,0.00001017,-0.00003111,0.00005008,0.0001
 8308,0.00000005,-0.00001059,0.00005242,0.00001962,0.00014709,-0.000164
 57,0.00024695,-0.00000346,-0.00001083,0.00000433,-0.00000704,-0.000043
 33,-0.00004937,0.00002280,-0.00000581,-0.00001630,-0.00007773,0.000017
 87,0.00011255,-0.00019885,0.00013419,-0.00017578,0.00000452,-0.0003845
 6,0.00010157,-0.00002278,-0.00011353,-0.00002722,0.00000109,0.00000234
 ,0.00000921,-0.00000165,0.00000054,-0.00000176,-0.00001027,-0.00000350
 ,0.00000215,-0.05597761,0.04681299,0.00034592,0.00004960,-0.00005231,0
 .00000617,-0.00000674,-0.00002422,-0.00002188,-0.00000346,-0.00000793,
 -0.00001046,0.00002618,0.00002534,0.00001598,-0.00000676,-0.00000799,-
 0.00000052,-0.00003116,-0.00000791,-0.00000973,0.00566795,-0.02577415,
 -0.00104269,-0.00401476,0.02465268,0.00002357,0.05518262,0.00025001,-0
 .00874064,-0.00235825,0.00100011,0.00144415,-0.00167306,-0.00030252,-0
 .00040278,0.00013221,0.00000877,0.00009923,-0.00017639,-0.00073357,0.0
 0072967,0.00071824,0.00041210,0.00023582,0.00008742,-0.00000036,-0.000
 10495,0.00008390,-0.00014392,0.00006133,-0.00005468,-0.00001755,-0.000
 05668,0.00001397,-0.00001796,0.00001142,-0.00001373,-0.00008379,0.0000
 2165,0.00000047,-0.00008298,0.00010339,0.00001267,0.00048345,0.0001733
 0,-0.00046575,0.00000708,0.00004720,0.00000715,-0.00000779,0.00000735,
 0.00000088,0.00004999,0.00000049,-0.00007758,0.00013866,0.00009661,-0.
 00014881,0.00025096,-0.00013531,0.00009974,-0.00030277,0.00036480,0.00
 006938,0.00005624,-0.00014574,-0.00007126,0.00000447,0.00000186,0.0000
 0136,-0.00001118,-0.00000263,-0.00000496,-0.00000101,0.00003462,0.0000
 0819,0.04838279,-0.31219478,-0.00374751,0.00015845,-0.00013420,0.00004
 168,0.00001979,-0.00004438,-0.00005353,-0.00000373,-0.00001260,-0.0000
 0321,0.00000957,0.00003939,0.00003377,-0.00000367,-0.00001008,-0.00000
 271,-0.00002940,-0.00001328,-0.00001286,0.00355993,-0.01221339,-0.0000
 2711,-0.00013388,-0.00483935,0.00018881,-0.05291631,0.33557850,0.00490
 142,-0.03791259,-0.00513576,0.00256451,0.00004251,-0.00546933,0.000048
 71,-0.00166583,-0.00028635,-0.00044612,-0.00018444,0.00025132,-0.00013
 899,-0.00142364,0.00153476,0.00047304,0.00013258,0.00005303,-0.0000256
 9,-0.00003614,0.00001303,-0.00009216,-0.00000657,-0.00001977,-0.000038
 74,0.00002328,-0.00003386,0.00003713,-0.00003640,0.00004644,-0.0002126
 2,-0.00012323,-0.00002472,0.00000157,0.00002860,-0.00000260,0.00003679
 ,0.00054491,-0.00019263,-0.00002365,0.00009468,0.00002966,-0.00000801,
 0.00002714,-0.00001101,0.00016093,-0.00008455,-0.00021720,0.00035211,-
 0.00008628,-0.00030733,0.00012165,0.00032494,-0.00026228,0.00026682,-0
 .00025042,0.00005973,0.00005016,-0.00004040,0.00000420,0.00000040,0.00
 000044,-0.00000339,-0.00001249,-0.00000968,-0.00001292,0.00001308,0.00
 001272,-0.00001645,-0.00049504,0.00587144,-0.04746089,0.00002551,-0.00
 004175,0.00000754,-0.00001257,-0.00000346,0.00000090,-0.00000793,-0.00
 000806,-0.00000119,0.00000761,0.00000249,-0.00000810,-0.00000087,-0.00
 000058,0.00000186,-0.00000516,-0.00000074,0.00000794,-0.00311479,0.009
 66945,0.00001864,-0.00218034,0.01774804,0.00091156,-0.00224626,0.00739
 154,0.05652516\\0.00000058,-0.00000110,0.00000046,0.00000059,-0.000002
 37,0.00000133,-0.00000181,0.00000107,0.00000076,0.00000241,0.00000047,
 -0.00000019,-0.00000020,0.00000047,0.00000029,0.00000036,-0.00000086,-
 0.00000039,0.,0.00000068,0.00000005,0.00000006,0.00000083,-0.00000027,
 -0.00000022,0.,-0.00000102,-0.00000099,0.00000010,-0.00000128,-0.00000
 051,0.,-0.00000072,0.00000033,0.00000113,-0.00000033,0.00000030,-0.000
 00055,0.00000144,0.00000076,0.00000014,0.00000108,0.00000066,0.0000004
 0,0.00000071,-0.00000025,-0.00000089,-0.00000002,-0.00000066,0.0000003
 2,0.00000004,-0.00000004,-0.00000072,0.00000055,-0.00000020,-0.0000012
 1,-0.00000015,0.00000006,0.00000023,-0.00000009,-0.00000042,0.00000067
 ,-0.00000138,-0.00000078,0.00000004,-0.00000167,-0.00000074,-0.0000004
 6,-0.00000088,-0.00000035,-0.00000102,0.00000099,0.,0.00000088,-0.0000
 0050,0.00000018,0.00000111,-0.00000032,0.00000026,0.00000153,-0.000000
 20,0.00000021,0.00000080,-0.00000016,0.00000008,0.00000095,-0.00000038
 ,0.00000032,0.00000077,0.00000018,-0.00000009,-0.00000088,0.00000017,-
 0.00000023,-0.00000124,0.00000079,0.00000034,-0.00000125,0.00000110\\\
 @


 WHAT THE SLIME CONTAINS, THE GLOWING REVEALS
 BY THE FLAME'S BRIGHT HUE WHEN YOU IGNITE IT.
   --  LEONARD THURNEYSSER, 1531-1596
 DESCRIBING HIS FLAME PHOTOLYSIS ANALYTIC METHOD
 Job cpu time:       0 days 18 hours 19 minutes 23.1 seconds.
 Elapsed time:       0 days  0 hours 39 minutes 20.0 seconds.
 File lengths (MBytes):  RWF=    900 Int=      0 D2E=      0 Chk=     28 Scr=      8
 Normal termination of Gaussian 16 at Mon Jul 20 22:54:15 2020.
