 Entering Gaussian System, Link 0=g16
 Input=NicPyrNa2h2.gjf
 Output=NicPyrNa2h2.log
 Initial command:
 /sw/contrib/gaussian/g16/A03/g16/l1.exe "/usr/lusers/gds001/Gau-25946.inp" -scrdir="/usr/lusers/gds001/"
 Entering Link 1 = /sw/contrib/gaussian/g16/A03/g16/l1.exe PID=     25947.
  
 Copyright (c) 1988,1990,1992,1993,1995,1998,2003,2009,2016,
            Gaussian, Inc.  All Rights Reserved.
  
 This is part of the Gaussian(R) 16 program.  It is based on
 the Gaussian(R) 09 system (copyright 2009, Gaussian, Inc.),
 the Gaussian(R) 03 system (copyright 2003, Gaussian, Inc.),
 the Gaussian(R) 98 system (copyright 1998, Gaussian, Inc.),
 the Gaussian(R) 94 system (copyright 1995, Gaussian, Inc.),
 the Gaussian 92(TM) system (copyright 1992, Gaussian, Inc.),
 the Gaussian 90(TM) system (copyright 1990, Gaussian, Inc.),
 the Gaussian 88(TM) system (copyright 1988, Gaussian, Inc.),
 the Gaussian 86(TM) system (copyright 1986, Carnegie Mellon
 University), and the Gaussian 82(TM) system (copyright 1983,
 Carnegie Mellon University). Gaussian is a federally registered
 trademark of Gaussian, Inc.
  
 This software contains proprietary and confidential information,
 including trade secrets, belonging to Gaussian, Inc.
  
 This software is provided under written license and may be
 used, copied, transmitted, or stored only in accord with that
 written license.
  
 The following legend is applicable only to US Government
 contracts under FAR:
  
                    RESTRICTED RIGHTS LEGEND
  
 Use, reproduction and disclosure by the US Government is
 subject to restrictions as set forth in subparagraphs (a)
 and (c) of the Commercial Computer Software - Restricted
 Rights clause in FAR 52.227-19.
  
 Gaussian, Inc.
 340 Quinnipiac St., Bldg. 40, Wallingford CT 06492
  
  
 ---------------------------------------------------------------
 Warning -- This program may not be used in any manner that
 competes with the business of Gaussian, Inc. or will provide
 assistance to any competitor of Gaussian, Inc.  The licensee
 of this program is prohibited from giving any competitor of
 Gaussian, Inc. access to this program.  By using this program,
 the user acknowledges that Gaussian, Inc. is engaged in the
 business of creating and licensing software in the field of
 computational chemistry and represents and warrants to the
 licensee that it is not a competitor of Gaussian, Inc. and that
 it will not use this program in any manner prohibited above.
 ---------------------------------------------------------------
  

 Cite this work as:
 Gaussian 16, Revision A.03,
 M. J. Frisch, G. W. Trucks, H. B. Schlegel, G. E. Scuseria, 
 M. A. Robb, J. R. Cheeseman, G. Scalmani, V. Barone, 
 G. A. Petersson, H. Nakatsuji, X. Li, M. Caricato, A. V. Marenich, 
 J. Bloino, B. G. Janesko, R. Gomperts, B. Mennucci, H. P. Hratchian, 
 J. V. Ortiz, A. F. Izmaylov, J. L. Sonnenberg, D. Williams-Young, 
 F. Ding, F. Lipparini, F. Egidi, J. Goings, B. Peng, A. Petrone, 
 T. Henderson, D. Ranasinghe, V. G. Zakrzewski, J. Gao, N. Rega, 
 G. Zheng, W. Liang, M. Hada, M. Ehara, K. Toyota, R. Fukuda, 
 J. Hasegawa, M. Ishida, T. Nakajima, Y. Honda, O. Kitao, H. Nakai, 
 T. Vreven, K. Throssell, J. A. Montgomery, Jr., J. E. Peralta, 
 F. Ogliaro, M. J. Bearpark, J. J. Heyd, E. N. Brothers, K. N. Kudin, 
 V. N. Staroverov, T. A. Keith, R. Kobayashi, J. Normand, 
 K. Raghavachari, A. P. Rendell, J. C. Burant, S. S. Iyengar, 
 J. Tomasi, M. Cossi, J. M. Millam, M. Klene, C. Adamo, R. Cammi, 
 J. W. Ochterski, R. L. Martin, K. Morokuma, O. Farkas, 
 J. B. Foresman, and D. J. Fox, Gaussian, Inc., Wallingford CT, 2016.
 
 ******************************************
 Gaussian 16:  ES64L-G16RevA.03 25-Dec-2016
                21-Jul-2020 
 ******************************************
 %nprocshared=28
 Will use up to   28 processors via shared memory.
 %mem=41GB
 %chk=NicPyrNa2h2.chk
 --------------------------------------------------------------
 # wB97XD/aug-cc-pVDZ Geom=AllCheck Opt=(CalcFC,ReCalc=50) Freq
 --------------------------------------------------------------
 1/10=4,18=20,19=15,26=3,29=7,38=1,71=50/1,3;
 2/9=110,12=2,40=1/2;
 3/5=16,7=10,11=2,14=-4,25=1,30=1,71=2,74=-58,140=1/1,2,3;
 4//1;
 5/5=2,38=5/2;
 8/6=4,10=90,11=11/1;
 11/6=1,8=1,9=11,15=111,16=1/1,2,10;
 10/6=1,13=1/2;
 6/7=2,8=2,9=2,10=2,28=1/1;
 7/10=1,18=20,25=1/1,2,3,16;
 1/10=4,18=20,19=15,26=3,71=50/3(2);
 2/9=110/2;
 99//99;
 2/9=110/2;
 3/5=16,7=10,11=2,14=-2,25=1,30=1,71=1,74=-58/1,2,3;
 4/5=5,16=3,69=1/1;
 5/5=2,38=5/2;
 7//1,2,3,16;
 1/18=20,19=15,26=3,71=50/3(-5);
 2/9=110/2;
 6/7=2,8=2,9=2,10=2,19=2,28=1/1;
 99/9=1/99;
 Structure from the checkpoint file:  "NicPyrNa2h2.chk"
 ----------------------------
 p-Pyr Nicotine, N anti, 2H2O
 ----------------------------
 Charge =  1 Multiplicity = 1
 Redundant internal coordinates found in file.  (old form).
 C,0,-0.9788391272,-0.0739460542,0.5592208269
 C,0,-0.3145386414,-1.1213536565,-0.0780121103
 C,0,-1.0934114522,-2.1062097443,-0.6854635197
 C,0,-2.4797720637,-1.9954626328,-0.6362641458
 C,0,-3.0391822539,-0.8822761614,-0.0120093874
 N,0,-2.3033050985,0.0686909836,0.5735503506
 C,0,1.1895968856,-1.1300024488,-0.1429650975
 C,0,1.9597339136,-0.9576051975,1.1867377862
 C,0,3.0529449311,0.0997232101,0.9145413919
 C,0,3.1175017282,0.1977657264,-0.6044800036
 N,0,1.6943671229,0.0075309035,-1.0121295494
 O,0,0.6055854382,2.4683831293,-0.494971559
 H,0,3.7021682763,-0.6152786774,-1.0533911305
 H,0,4.0230431669,-0.1742574053,1.3386936741
 H,0,2.7632229851,1.0702078944,1.3340582146
 H,0,1.2914251039,-0.645329727,1.994242177
 H,0,2.3895287765,-1.9207418307,1.4795722138
 H,0,3.4768793185,1.1571298451,-0.9892544792
 H,0,1.5254632813,-2.0415265021,-0.6539260503
 H,0,-0.4159360622,0.7096944179,1.0702347082
 H,0,-4.1203100328,-0.744734676,0.0167512878
 H,0,-3.1211752539,-2.7491991032,-1.0888052022
 H,0,-0.6254441034,-2.9523646877,-1.190911206
 C,0,1.4827245329,-0.1977682569,-2.4610553633
 H,0,1.1931585031,0.8935772451,-0.7571107268
 H,0,0.9212279909,3.2751690094,-0.9081684646
 H,0,-0.2935056871,2.6745397695,-0.1480695566
 O,0,-1.8823606882,2.8443260097,0.4696030447
 H,0,-2.3691388744,2.0209391083,0.6586158514
 H,0,-2.2759616748,3.5420863199,0.9974725795
 H,0,1.8580945211,0.6765824006,-3.000712767
 H,0,0.4110471125,-0.3116387605,-2.6489777381
 H,0,2.0222544028,-1.095502132,-2.7807275696
 Recover connectivity data from disk.

 GradGradGradGradGradGradGradGradGradGradGradGradGradGradGradGradGradGrad
 Berny optimization.
 Initialization pass.
                           ----------------------------
                           !    Initial Parameters    !
                           ! (Angstroms and Degrees)  !
 --------------------------                            --------------------------
 ! Name  Definition              Value          Derivative Info.                !
 --------------------------------------------------------------------------------
 ! R1    R(1,2)                  1.3944         calculate D2E/DX2 analytically  !
 ! R2    R(1,6)                  1.3322         calculate D2E/DX2 analytically  !
 ! R3    R(1,20)                 1.0918         calculate D2E/DX2 analytically  !
 ! R4    R(2,3)                  1.3948         calculate D2E/DX2 analytically  !
 ! R5    R(2,7)                  1.5056         calculate D2E/DX2 analytically  !
 ! R6    R(3,4)                  1.3916         calculate D2E/DX2 analytically  !
 ! R7    R(3,23)                 1.0911         calculate D2E/DX2 analytically  !
 ! R8    R(4,5)                  1.3935         calculate D2E/DX2 analytically  !
 ! R9    R(4,22)                 1.0883         calculate D2E/DX2 analytically  !
 ! R10   R(5,6)                  1.3374         calculate D2E/DX2 analytically  !
 ! R11   R(5,21)                 1.0902         calculate D2E/DX2 analytically  !
 ! R12   R(7,8)                  1.5463         calculate D2E/DX2 analytically  !
 ! R13   R(7,11)                 1.518          calculate D2E/DX2 analytically  !
 ! R14   R(7,19)                 1.0976         calculate D2E/DX2 analytically  !
 ! R15   R(8,9)                  1.545          calculate D2E/DX2 analytically  !
 ! R16   R(8,16)                 1.0937         calculate D2E/DX2 analytically  !
 ! R17   R(8,17)                 1.0946         calculate D2E/DX2 analytically  !
 ! R18   R(9,10)                 1.5236         calculate D2E/DX2 analytically  !
 ! R19   R(9,14)                 1.0936         calculate D2E/DX2 analytically  !
 ! R20   R(9,15)                 1.0963         calculate D2E/DX2 analytically  !
 ! R21   R(10,11)                1.4925         calculate D2E/DX2 analytically  !
 ! R22   R(10,13)                1.0975         calculate D2E/DX2 analytically  !
 ! R23   R(10,18)                1.0943         calculate D2E/DX2 analytically  !
 ! R24   R(11,24)                1.4786         calculate D2E/DX2 analytically  !
 ! R25   R(11,25)                1.0494         calculate D2E/DX2 analytically  !
 ! R26   R(12,25)                1.7012         calculate D2E/DX2 analytically  !
 ! R27   R(12,26)                0.9598         calculate D2E/DX2 analytically  !
 ! R28   R(12,27)                0.9855         calculate D2E/DX2 analytically  !
 ! R29   R(24,31)                1.0939         calculate D2E/DX2 analytically  !
 ! R30   R(24,32)                1.094          calculate D2E/DX2 analytically  !
 ! R31   R(24,33)                1.0951         calculate D2E/DX2 analytically  !
 ! R32   R(27,28)                1.7131         calculate D2E/DX2 analytically  !
 ! R33   R(28,29)                0.975          calculate D2E/DX2 analytically  !
 ! R34   R(28,30)                0.9594         calculate D2E/DX2 analytically  !
 ! A1    A(2,1,6)              123.9846         calculate D2E/DX2 analytically  !
 ! A2    A(2,1,20)             120.4902         calculate D2E/DX2 analytically  !
 ! A3    A(6,1,20)             115.5111         calculate D2E/DX2 analytically  !
 ! A4    A(1,2,3)              117.6039         calculate D2E/DX2 analytically  !
 ! A5    A(1,2,7)              119.9984         calculate D2E/DX2 analytically  !
 ! A6    A(3,2,7)              122.3454         calculate D2E/DX2 analytically  !
 ! A7    A(2,3,4)              118.9921         calculate D2E/DX2 analytically  !
 ! A8    A(2,3,23)             120.652          calculate D2E/DX2 analytically  !
 ! A9    A(4,3,23)             120.3558         calculate D2E/DX2 analytically  !
 ! A10   A(3,4,5)              118.6416         calculate D2E/DX2 analytically  !
 ! A11   A(3,4,22)             121.1531         calculate D2E/DX2 analytically  !
 ! A12   A(5,4,22)             120.1966         calculate D2E/DX2 analytically  !
 ! A13   A(4,5,6)              122.9062         calculate D2E/DX2 analytically  !
 ! A14   A(4,5,21)             120.7102         calculate D2E/DX2 analytically  !
 ! A15   A(6,5,21)             116.3832         calculate D2E/DX2 analytically  !
 ! A16   A(1,6,5)              117.7867         calculate D2E/DX2 analytically  !
 ! A17   A(2,7,8)              117.3774         calculate D2E/DX2 analytically  !
 ! A18   A(2,7,11)             110.6472         calculate D2E/DX2 analytically  !
 ! A19   A(2,7,19)             109.3028         calculate D2E/DX2 analytically  !
 ! A20   A(8,7,11)             104.0766         calculate D2E/DX2 analytically  !
 ! A21   A(8,7,19)             109.9076         calculate D2E/DX2 analytically  !
 ! A22   A(11,7,19)            104.7159         calculate D2E/DX2 analytically  !
 ! A23   A(7,8,9)              106.0937         calculate D2E/DX2 analytically  !
 ! A24   A(7,8,16)             111.2478         calculate D2E/DX2 analytically  !
 ! A25   A(7,8,17)             109.1186         calculate D2E/DX2 analytically  !
 ! A26   A(9,8,16)             111.5327         calculate D2E/DX2 analytically  !
 ! A27   A(9,8,17)             111.8057         calculate D2E/DX2 analytically  !
 ! A28   A(16,8,17)            107.076          calculate D2E/DX2 analytically  !
 ! A29   A(8,9,10)             104.458          calculate D2E/DX2 analytically  !
 ! A30   A(8,9,14)             112.8216         calculate D2E/DX2 analytically  !
 ! A31   A(8,9,15)             110.5736         calculate D2E/DX2 analytically  !
 ! A32   A(10,9,14)            111.4209         calculate D2E/DX2 analytically  !
 ! A33   A(10,9,15)            109.6196         calculate D2E/DX2 analytically  !
 ! A34   A(14,9,15)            107.9261         calculate D2E/DX2 analytically  !
 ! A35   A(9,10,11)            102.9269         calculate D2E/DX2 analytically  !
 ! A36   A(9,10,13)            112.503          calculate D2E/DX2 analytically  !
 ! A37   A(9,10,18)            114.8906         calculate D2E/DX2 analytically  !
 ! A38   A(11,10,13)           107.5674         calculate D2E/DX2 analytically  !
 ! A39   A(11,10,18)           109.1978         calculate D2E/DX2 analytically  !
 ! A40   A(13,10,18)           109.311          calculate D2E/DX2 analytically  !
 ! A41   A(7,11,10)            104.8443         calculate D2E/DX2 analytically  !
 ! A42   A(7,11,24)            114.1697         calculate D2E/DX2 analytically  !
 ! A43   A(7,11,25)            109.5572         calculate D2E/DX2 analytically  !
 ! A44   A(10,11,24)           114.9492         calculate D2E/DX2 analytically  !
 ! A45   A(10,11,25)           106.344          calculate D2E/DX2 analytically  !
 ! A46   A(24,11,25)           106.6779         calculate D2E/DX2 analytically  !
 ! A47   A(25,12,26)           126.741          calculate D2E/DX2 analytically  !
 ! A48   A(25,12,27)           124.2638         calculate D2E/DX2 analytically  !
 ! A49   A(26,12,27)           106.005          calculate D2E/DX2 analytically  !
 ! A50   A(11,24,31)           108.8644         calculate D2E/DX2 analytically  !
 ! A51   A(11,24,32)           108.8445         calculate D2E/DX2 analytically  !
 ! A52   A(11,24,33)           109.2297         calculate D2E/DX2 analytically  !
 ! A53   A(31,24,32)           109.5487         calculate D2E/DX2 analytically  !
 ! A54   A(31,24,33)           110.0095         calculate D2E/DX2 analytically  !
 ! A55   A(32,24,33)           110.3141         calculate D2E/DX2 analytically  !
 ! A56   A(27,28,29)           116.6947         calculate D2E/DX2 analytically  !
 ! A57   A(27,28,30)           130.614          calculate D2E/DX2 analytically  !
 ! A58   A(29,28,30)           107.6202         calculate D2E/DX2 analytically  !
 ! A59   L(11,25,12,1,-1)      190.2578         calculate D2E/DX2 analytically  !
 ! A60   L(12,27,28,1,-1)      173.6581         calculate D2E/DX2 analytically  !
 ! A61   L(11,25,12,1,-2)      180.3853         calculate D2E/DX2 analytically  !
 ! A62   L(12,27,28,1,-2)      180.7814         calculate D2E/DX2 analytically  !
 ! D1    D(6,1,2,3)             -2.8844         calculate D2E/DX2 analytically  !
 ! D2    D(6,1,2,7)            174.5465         calculate D2E/DX2 analytically  !
 ! D3    D(20,1,2,3)           178.5452         calculate D2E/DX2 analytically  !
 ! D4    D(20,1,2,7)            -4.0238         calculate D2E/DX2 analytically  !
 ! D5    D(2,1,6,5)              2.9111         calculate D2E/DX2 analytically  !
 ! D6    D(20,1,6,5)          -178.4539         calculate D2E/DX2 analytically  !
 ! D7    D(1,2,3,4)              0.4183         calculate D2E/DX2 analytically  !
 ! D8    D(1,2,3,23)          -179.4924         calculate D2E/DX2 analytically  !
 ! D9    D(7,2,3,4)           -176.9481         calculate D2E/DX2 analytically  !
 ! D10   D(7,2,3,23)             3.1412         calculate D2E/DX2 analytically  !
 ! D11   D(1,2,7,8)             52.3867         calculate D2E/DX2 analytically  !
 ! D12   D(1,2,7,11)           -66.8115         calculate D2E/DX2 analytically  !
 ! D13   D(1,2,7,19)           178.3785         calculate D2E/DX2 analytically  !
 ! D14   D(3,2,7,8)           -130.3082         calculate D2E/DX2 analytically  !
 ! D15   D(3,2,7,11)           110.4937         calculate D2E/DX2 analytically  !
 ! D16   D(3,2,7,19)            -4.3164         calculate D2E/DX2 analytically  !
 ! D17   D(2,3,4,5)              1.75           calculate D2E/DX2 analytically  !
 ! D18   D(2,3,4,22)          -179.3191         calculate D2E/DX2 analytically  !
 ! D19   D(23,3,4,5)          -178.339          calculate D2E/DX2 analytically  !
 ! D20   D(23,3,4,22)            0.5918         calculate D2E/DX2 analytically  !
 ! D21   D(3,4,5,6)             -1.7991         calculate D2E/DX2 analytically  !
 ! D22   D(3,4,5,21)           177.9483         calculate D2E/DX2 analytically  !
 ! D23   D(22,4,5,6)           179.2595         calculate D2E/DX2 analytically  !
 ! D24   D(22,4,5,21)           -0.9931         calculate D2E/DX2 analytically  !
 ! D25   D(4,5,6,1)             -0.4913         calculate D2E/DX2 analytically  !
 ! D26   D(21,5,6,1)           179.7511         calculate D2E/DX2 analytically  !
 ! D27   D(2,7,8,9)           -133.1111         calculate D2E/DX2 analytically  !
 ! D28   D(2,7,8,16)           -11.6412         calculate D2E/DX2 analytically  !
 ! D29   D(2,7,8,17)           106.2787         calculate D2E/DX2 analytically  !
 ! D30   D(11,7,8,9)           -10.4797         calculate D2E/DX2 analytically  !
 ! D31   D(11,7,8,16)          110.9902         calculate D2E/DX2 analytically  !
 ! D32   D(11,7,8,17)         -131.0899         calculate D2E/DX2 analytically  !
 ! D33   D(19,7,8,9)           101.1954         calculate D2E/DX2 analytically  !
 ! D34   D(19,7,8,16)         -137.3347         calculate D2E/DX2 analytically  !
 ! D35   D(19,7,8,17)          -19.4148         calculate D2E/DX2 analytically  !
 ! D36   D(2,7,11,10)          159.9544         calculate D2E/DX2 analytically  !
 ! D37   D(2,7,11,24)          -73.3722         calculate D2E/DX2 analytically  !
 ! D38   D(2,7,11,25)           46.1824         calculate D2E/DX2 analytically  !
 ! D39   D(8,7,11,10)           33.0047         calculate D2E/DX2 analytically  !
 ! D40   D(8,7,11,24)          159.6781         calculate D2E/DX2 analytically  !
 ! D41   D(8,7,11,25)          -80.7673         calculate D2E/DX2 analytically  !
 ! D42   D(19,7,11,10)         -82.3873         calculate D2E/DX2 analytically  !
 ! D43   D(19,7,11,24)          44.2861         calculate D2E/DX2 analytically  !
 ! D44   D(19,7,11,25)         163.8408         calculate D2E/DX2 analytically  !
 ! D45   D(7,8,9,10)           -15.0856         calculate D2E/DX2 analytically  !
 ! D46   D(7,8,9,14)          -136.2631         calculate D2E/DX2 analytically  !
 ! D47   D(7,8,9,15)           102.7643         calculate D2E/DX2 analytically  !
 ! D48   D(16,8,9,10)         -136.3725         calculate D2E/DX2 analytically  !
 ! D49   D(16,8,9,14)          102.45           calculate D2E/DX2 analytically  !
 ! D50   D(16,8,9,15)          -18.5226         calculate D2E/DX2 analytically  !
 ! D51   D(17,8,9,10)          103.7689         calculate D2E/DX2 analytically  !
 ! D52   D(17,8,9,14)          -17.4086         calculate D2E/DX2 analytically  !
 ! D53   D(17,8,9,15)         -138.3812         calculate D2E/DX2 analytically  !
 ! D54   D(8,9,10,11)           35.3676         calculate D2E/DX2 analytically  !
 ! D55   D(8,9,10,13)          -80.1181         calculate D2E/DX2 analytically  !
 ! D56   D(8,9,10,18)          153.9501         calculate D2E/DX2 analytically  !
 ! D57   D(14,9,10,11)         157.4692         calculate D2E/DX2 analytically  !
 ! D58   D(14,9,10,13)          41.9835         calculate D2E/DX2 analytically  !
 ! D59   D(14,9,10,18)         -83.9482         calculate D2E/DX2 analytically  !
 ! D60   D(15,9,10,11)         -83.1339         calculate D2E/DX2 analytically  !
 ! D61   D(15,9,10,13)         161.3804         calculate D2E/DX2 analytically  !
 ! D62   D(15,9,10,18)          35.4487         calculate D2E/DX2 analytically  !
 ! D63   D(9,10,11,7)          -42.8678         calculate D2E/DX2 analytically  !
 ! D64   D(9,10,11,24)        -169.0586         calculate D2E/DX2 analytically  !
 ! D65   D(9,10,11,25)          73.1477         calculate D2E/DX2 analytically  !
 ! D66   D(13,10,11,7)          76.1159         calculate D2E/DX2 analytically  !
 ! D67   D(13,10,11,24)        -50.0749         calculate D2E/DX2 analytically  !
 ! D68   D(13,10,11,25)       -167.8686         calculate D2E/DX2 analytically  !
 ! D69   D(18,10,11,7)        -165.3596         calculate D2E/DX2 analytically  !
 ! D70   D(18,10,11,24)         68.4495         calculate D2E/DX2 analytically  !
 ! D71   D(18,10,11,25)        -49.3442         calculate D2E/DX2 analytically  !
 ! D72   D(7,11,12,26)         172.6115         calculate D2E/DX2 analytically  !
 ! D73   D(7,11,12,27)         -29.9039         calculate D2E/DX2 analytically  !
 ! D74   D(10,11,12,26)         59.3183         calculate D2E/DX2 analytically  !
 ! D75   D(10,11,12,27)       -143.1971         calculate D2E/DX2 analytically  !
 ! D76   D(24,11,12,26)        -60.8873         calculate D2E/DX2 analytically  !
 ! D77   D(24,11,12,27)         96.5973         calculate D2E/DX2 analytically  !
 ! D78   D(7,11,24,31)         178.9011         calculate D2E/DX2 analytically  !
 ! D79   D(7,11,24,32)          59.5446         calculate D2E/DX2 analytically  !
 ! D80   D(7,11,24,33)         -60.9565         calculate D2E/DX2 analytically  !
 ! D81   D(10,11,24,31)        -59.8673         calculate D2E/DX2 analytically  !
 ! D82   D(10,11,24,32)       -179.2238         calculate D2E/DX2 analytically  !
 ! D83   D(10,11,24,33)         60.2751         calculate D2E/DX2 analytically  !
 ! D84   D(25,11,24,31)         57.7379         calculate D2E/DX2 analytically  !
 ! D85   D(25,11,24,32)        -61.6186         calculate D2E/DX2 analytically  !
 ! D86   D(25,11,24,33)        177.8803         calculate D2E/DX2 analytically  !
 ! D87   D(25,12,28,29)          1.2653         calculate D2E/DX2 analytically  !
 ! D88   D(25,12,28,30)        151.5353         calculate D2E/DX2 analytically  !
 ! D89   D(26,12,28,29)        162.5325         calculate D2E/DX2 analytically  !
 ! D90   D(26,12,28,30)        -47.1975         calculate D2E/DX2 analytically  !
 --------------------------------------------------------------------------------
 Trust Radius=3.00D-01 FncErr=1.00D-07 GrdErr=1.00D-06 EigMax=2.50D+02 EigMin=1.00D-04
 Number of steps in this run=    196 maximum allowed number of steps=    198.
 GradGradGradGradGradGradGradGradGradGradGradGradGradGradGradGradGradGrad

                          Input orientation:                          
 ---------------------------------------------------------------------
 Center     Atomic      Atomic             Coordinates (Angstroms)
 Number     Number       Type             X           Y           Z
 ---------------------------------------------------------------------
      1          6           0       -0.978839   -0.073946    0.559221
      2          6           0       -0.314539   -1.121354   -0.078012
      3          6           0       -1.093411   -2.106210   -0.685464
      4          6           0       -2.479772   -1.995463   -0.636264
      5          6           0       -3.039182   -0.882276   -0.012009
      6          7           0       -2.303305    0.068691    0.573550
      7          6           0        1.189597   -1.130002   -0.142965
      8          6           0        1.959734   -0.957605    1.186738
      9          6           0        3.052945    0.099723    0.914541
     10          6           0        3.117502    0.197766   -0.604480
     11          7           0        1.694367    0.007531   -1.012130
     12          8           0        0.605585    2.468383   -0.494972
     13          1           0        3.702168   -0.615279   -1.053391
     14          1           0        4.023043   -0.174257    1.338694
     15          1           0        2.763223    1.070208    1.334058
     16          1           0        1.291425   -0.645330    1.994242
     17          1           0        2.389529   -1.920742    1.479572
     18          1           0        3.476879    1.157130   -0.989254
     19          1           0        1.525463   -2.041527   -0.653926
     20          1           0       -0.415936    0.709694    1.070235
     21          1           0       -4.120310   -0.744735    0.016751
     22          1           0       -3.121175   -2.749199   -1.088805
     23          1           0       -0.625444   -2.952365   -1.190911
     24          6           0        1.482725   -0.197768   -2.461055
     25          1           0        1.193159    0.893577   -0.757111
     26          1           0        0.921228    3.275169   -0.908168
     27          1           0       -0.293506    2.674540   -0.148070
     28          8           0       -1.882361    2.844326    0.469603
     29          1           0       -2.369139    2.020939    0.658616
     30          1           0       -2.275962    3.542086    0.997473
     31          1           0        1.858095    0.676582   -3.000713
     32          1           0        0.411047   -0.311639   -2.648978
     33          1           0        2.022254   -1.095502   -2.780728
 ---------------------------------------------------------------------
                    Distance matrix (angstroms):
                    1          2          3          4          5
     1  C    0.000000
     2  C    1.394426   0.000000
     3  C    2.385888   1.394841   0.000000
     4  C    2.715550   2.400822   1.391647   0.000000
     5  C    2.285764   2.735909   2.395324   1.393491   0.000000
     6  N    1.332201   2.407474   2.789113   2.399067   1.337436
     7  C    2.512058   1.505562   2.541537   3.802188   4.238053
     8  C    3.132067   2.607436   3.761134   4.910163   5.141190
     9  C    4.051135   3.717006   4.961696   6.116025   6.239939
    10  C    4.267087   3.714316   4.800693   6.011716   6.278716
    11  N    3.101905   2.486495   3.513733   4.645072   4.919196
    12  O    3.175714   3.729168   4.883623   5.428196   4.974385
    13  H    4.980501   4.164302   5.035457   6.347857   6.826534
    14  H    5.063247   4.660329   5.831617   7.035897   7.225006
    15  H    3.989046   4.033547   5.389038   6.385100   6.268333
    16  H    2.745882   2.664574   3.873298   4.792113   4.778635
    17  H    3.950140   3.221346   4.105198   5.309655   5.724869
    18  H    4.875115   4.516271   5.623987   6.748714   6.897336
    19  H    3.408024   2.136353   2.619863   4.005539   4.753094
    20  H    1.091828   2.163675   3.386852   3.806499   3.253774
    21  H    3.257771   3.825535   3.392467   2.163819   1.090221
    22  H    3.802969   3.398351   2.165166   1.088260   2.156760
    23  H    3.387203   2.165135   1.091077   2.159126   3.391343
    24  C    3.898294   3.124430   3.664881   4.718363   5.187872
    25  H    2.717794   2.606582   3.772566   4.674567   4.649897
    26  H    4.120687   4.641734   5.750444   6.278558   5.811394
    27  H    2.919609   3.796598   4.876906   5.179480   4.495352
    28  O    3.056255   4.299368   5.144358   5.000340   3.931635
    29  H    2.516219   3.825965   4.524090   4.221426   3.054072
    30  H    3.866559   5.172187   6.011152   5.777117   4.601798
    31  H    4.613525   4.061415   4.670728   5.616719   5.945226
    32  H    3.504400   2.791411   3.056022   3.904243   4.379876
    33  H    4.604932   3.572946   3.888320   5.067237   5.773163
                    6          7          8          9         10
     6  N    0.000000
     7  C    3.761732   0.000000
     8  C    4.427503   1.546267   0.000000
     9  C    5.367183   2.470346   1.545039   0.000000
    10  C    5.548834   2.385955   2.425648   1.523550   0.000000
    11  N    4.301105   1.517966   2.415973   2.359299   1.492541
    12  O    3.919427   3.662425   4.049600   3.686034   3.387834
    13  H    6.259430   2.721549   2.858574   2.192140   1.097450
    14  H    6.377080   3.337241   2.212232   1.093646   2.175852
    15  H    5.220260   3.082016   2.186166   1.096254   2.155133
    16  H    3.930684   2.193839   1.093717   2.196317   3.286141
    17  H    5.177008   2.167425   1.094581   2.200377   3.059623
    18  H    6.085852   3.343477   3.392459   2.218618   1.094341
    19  H    4.540835   1.097617   2.179798   3.062391   2.747992
    20  H    2.054201   2.726550   2.904698   3.525541   3.943593
    21  H    2.067170   5.326261   6.195250   7.278374   7.325309
    22  H    3.372364   4.700975   5.848379   7.088689   6.916666
    23  H    3.880118   2.777331   4.039236   5.222903   4.927156
    24  C    4.859409   2.515656   3.756499   3.734802   2.505158
    25  H    3.830973   2.114725   2.791606   2.623629   2.051962
    26  H    4.782740   4.479184   4.835649   4.236737   3.792922
    27  H    3.369047   4.083401   4.477865   4.354027   4.240011
    28  O    2.809297   5.060380   5.452582   5.664632   5.758173
    29  H    1.955209   4.820328   5.281077   5.758087   5.917989
    30  H    3.499276   5.927825   6.182569   6.344603   6.545241
    31  H    5.519251   3.446355   4.496181   4.133963   2.749055
    32  H    4.230490   2.748810   4.186695   4.455055   3.429921
    33  H    5.596159   2.766279   3.970353   4.018196   2.758290
                   11         12         13         14         15
    11  N    0.000000
    12  O    2.740199   0.000000
    13  H    2.102584   4.405636   0.000000
    14  H    3.313933   4.693069   2.453473   0.000000
    15  H    2.788608   3.155257   3.069592   1.770837   0.000000
    16  H    3.102718   4.044968   3.885956   2.848401   2.354804
    17  H    3.226463   5.132806   3.137381   2.395501   3.017715
    18  H    2.121191   3.195001   1.787820   2.736828   2.432004
    19  H    2.086977   4.605510   2.632831   3.700694   3.894486
    20  H    3.046745   2.566391   4.819141   4.534091   3.210393
    21  H    5.952728   5.737602   7.896400   8.269654   7.239637
    22  H    5.549314   6.439297   7.149328   7.972636   7.421878
    23  H    3.764900   5.602167   4.920276   5.977057   5.834349
    24  C    1.478623   3.426838   2.661158   4.570762   4.201229
    25  H    1.049439   1.701168   2.942713   3.679798   2.620933
    26  H    3.359466   0.959826   4.784381   5.154434   3.644500
    27  H    3.436739   0.985498   5.254324   5.381329   3.756884
    28  O    4.799575   2.694738   6.743541   6.688868   5.047398
    29  H    4.832937   3.221794   6.836767   6.792745   5.263198
    30  H    5.682877   3.418120   7.564903   7.321551   5.622887
    31  H    2.104495   3.325367   2.976840   4.923554   4.445721
    32  H    2.104294   3.522231   3.670092   5.382092   4.827712
    33  H    2.110007   4.464629   2.456912   4.671347   4.708588
                   16         17         18         19         20
    16  H    0.000000
    17  H    1.759941   0.000000
    18  H    4.114161   4.092766   0.000000
    19  H    3.002821   2.304997   3.761897   0.000000
    20  H    2.367480   3.867478   4.426704   3.782985   0.000000
    21  H    5.762571   6.775016   7.895975   5.831486   4.116744
    22  H    5.779489   6.136022   7.668353   4.720293   4.893232
    23  H    4.375157   4.157618   5.810135   2.396744   4.308985
    24  C    4.481806   4.395393   2.824642   2.582051   4.110768
    25  H    3.154019   3.788726   2.310570   2.955657   2.441760
    26  H    4.891967   5.903787   3.320244   5.356957   3.504818
    27  H    4.257116   5.564576   4.150413   5.079943   2.315140
    28  O    4.957332   6.478808   5.804856   6.061942   2.658536
    29  H    4.721506   6.233437   6.134947   5.778782   2.388262
    30  H    5.590550   7.200119   6.536840   6.953753   3.389312
    31  H    5.197898   5.205907   2.626281   3.606406   4.663145
    32  H    4.737711   4.852682   3.783027   2.866124   3.944561
    33  H    4.851505   4.355005   3.224850   2.380136   4.902389
                   21         22         23         24         25
    21  H    0.000000
    22  H    2.497680   0.000000
    23  H    4.306526   2.506068   0.000000
    24  C    6.150829   5.439555   3.693974   0.000000
    25  H    5.613900   5.656263   4.276303   2.044092   0.000000
    26  H    6.514001   7.257180   6.422952   3.845521   2.401821
    27  H    5.134495   6.188509   5.732343   4.093293   2.398526
    28  O    4.253804   5.937240   6.159446   5.400638   3.843054
    29  H    3.335797   5.135490   5.585246   5.430641   3.995646
    30  H    4.768676   6.681857   7.049193   6.330533   4.704036
    31  H    6.845915   6.339124   4.755271   1.093902   2.350101
    32  H    5.275119   4.566446   3.189625   1.093972   2.375585
    33  H    6.758700   5.661465   3.603576   1.095084   2.956157
                   26         27         28         29         30
    26  H    0.000000
    27  H    1.553732   0.000000
    28  O    3.153409   1.713128   0.000000
    29  H    3.854143   2.320816   0.975010   0.000000
    30  H    3.731586   2.448476   0.959394   1.561216   0.000000
    31  H    3.465417   4.093750   5.543754   5.750433   6.425498
    32  H    4.019439   3.958308   4.994535   4.910247   5.947084
    33  H    4.880728   5.148480   6.429068   6.389493   7.365914
                   31         32         33
    31  H    0.000000
    32  H    1.787245   0.000000
    33  H    1.793217   1.796605   0.000000
 Stoichiometry    C10H19N2O2(1+)
 Framework group  C1[X(C10H19N2O2)]
 Deg. of freedom    93
 Full point group                 C1      NOp   1
 Largest Abelian subgroup         C1      NOp   1
 Largest concise Abelian subgroup C1      NOp   1
                         Standard orientation:                         
 ---------------------------------------------------------------------
 Center     Atomic      Atomic             Coordinates (Angstroms)
 Number     Number       Type             X           Y           Z
 ---------------------------------------------------------------------
      1          6           0        1.172902    0.121482   -0.658528
      2          6           0        0.522225   -1.039784   -0.243191
      3          6           0        1.307175   -2.071728    0.271130
      4          6           0        2.685004   -1.894315    0.353560
      5          6           0        3.226612   -0.674706   -0.047730
      6          7           0        2.484722    0.322282   -0.542044
      7          6           0       -0.979732   -1.123996   -0.304432
      8          6           0       -1.656723   -0.782000   -1.651897
      9          6           0       -2.824436    0.171850   -1.314611
     10          6           0       -3.007725    0.031108    0.191312
     11          7           0       -1.610661   -0.157537    0.681523
     12          8           0       -0.625088    2.398810    0.632273
     13          1           0       -3.578097   -0.866263    0.462971
     14          1           0       -3.743336   -0.075379   -1.853649
     15          1           0       -2.558694    1.207205   -1.557907
     16          1           0       -0.948364   -0.319848   -2.345337
     17          1           0       -2.009088   -1.706155   -2.120816
     18          1           0       -3.447757    0.902895    0.685217
     19          1           0       -1.301539   -2.117299    0.034027
     20          1           0        0.606984    0.949345   -1.090345
     21          1           0        4.297516   -0.487325    0.033721
     22          1           0        3.331785   -2.680202    0.738742
     23          1           0        0.850613   -3.005422    0.603116
     24          6           0       -1.496811   -0.574801    2.095472
     25          1           0       -1.141945    0.778290    0.604994
     26          1           0       -1.015199    3.117515    1.134809
     27          1           0        0.284531    2.695127    0.395637
     28          8           0        1.903176    3.027481   -0.056397
     29          1           0        2.447844    2.265222   -0.326475
     30          1           0        2.295641    3.814925   -0.438943
     31          1           0       -1.959607    0.188447    2.727844
     32          1           0       -0.437504   -0.669462    2.351758
     33          1           0       -2.007863   -1.533826    2.230778
 ---------------------------------------------------------------------
 Rotational constants (GHZ):           0.8138397           0.5099595           0.3985891
 Standard basis: Aug-CC-pVDZ (5D, 7F)
 There are   521 symmetry adapted cartesian basis functions of A   symmetry.
 There are   493 symmetry adapted basis functions of A   symmetry.
   493 basis functions,   811 primitive gaussians,   521 cartesian basis functions
    54 alpha electrons       54 beta electrons
       nuclear repulsion energy       977.9213432814 Hartrees.
 NAtoms=   33 NActive=   33 NUniq=   33 SFac= 1.00D+00 NAtFMM=   60 NAOKFM=F Big=F
 Integral buffers will be    131072 words long.
 Raffenetti 2 integral format.
 Two-electron integral symmetry is turned on.
 Nuclear repulsion after empirical dispersion term =      977.8945274662 Hartrees.
 One-electron integrals computed using PRISM.
 NBasis=   493 RedAO= T EigKep=  2.41D-06  NBF=   493
 NBsUse=   493 1.00D-06 EigRej= -1.00D+00 NBFU=   493
 ExpMin= 2.97D-02 ExpMax= 1.17D+04 ExpMxC= 4.01D+02 IAcc=3 IRadAn=         5 AccDes= 0.00D+00
 Harris functional with IExCor= 4639 and IRadAn=       5 diagonalized for initial guess.
 HarFok:  IExCor= 4639 AccDes= 0.00D+00 IRadAn=         5 IDoV= 1 UseB2=F ITyADJ=14
 ICtDFT=  3500011 ScaDFX=  1.000000  1.000000  1.000000  1.000000
 FoFCou: FMM=F IPFlag=           0 FMFlag=      100000 FMFlg1=           0
         NFxFlg=           0 DoJE=T BraDBF=F KetDBF=T FulRan=T
         wScrn=  0.000000 ICntrl=       500 IOpCl=  0 I1Cent=   200000004 NGrid=           0
         NMat0=    1 NMatS0=      1 NMatT0=    0 NMatD0=    1 NMtDS0=    0 NMtDT0=    0
 Petite list used in FoFCou.
 Requested convergence on RMS density matrix=1.00D-08 within 128 cycles.
 Requested convergence on MAX density matrix=1.00D-06.
 Requested convergence on             energy=1.00D-06.
 No special actions if energy rises.
 SCF Done:  E(RwB97XD) =  -652.160981748     A.U. after   14 cycles
            NFock= 14  Conv=0.79D-08     -V/T= 2.0063
 DoSCS=F DFT=T ScalE2(SS,OS)=  1.000000  1.000000
 Range of M.O.s used for correlation:     1   493
 NBasis=   493 NAE=    54 NBE=    54 NFC=     0 NFV=     0
 NROrb=    493 NOA=    54 NOB=    54 NVA=   439 NVB=   439

 **** Warning!!: The largest alpha MO coefficient is  0.12978772D+03

 Symmetrizing basis deriv contribution to polar:
 IMax=3 JMax=2 DiffMx= 0.00D+00
 G2DrvN: will do    34 centers at a time, making    1 passes.
 Calling FoFCou, ICntrl=  3107 FMM=F I1Cent=   0 AccDes= 0.00D+00.
 End of G2Drv F.D. properties file   721 does not exist.
 End of G2Drv F.D. properties file   722 does not exist.
 End of G2Drv F.D. properties file   788 does not exist.
          IDoAtm=111111111111111111111111111111111
          Differentiating once with respect to nuclear coordinates.
 CalDSu exits because no D1Ps are significant.
          There are   102 degrees of freedom in the 1st order CPHF.  IDoFFX=6 NUNeed=     0.
     96 vectors produced by pass  0 Test12= 2.37D-14 1.00D-09 XBig12= 4.22D-01 1.18D-01.
 AX will form    96 AO Fock derivatives at one time.
     96 vectors produced by pass  1 Test12= 2.37D-14 1.00D-09 XBig12= 5.47D-02 6.97D-02.
     96 vectors produced by pass  2 Test12= 2.37D-14 1.00D-09 XBig12= 1.03D-03 4.55D-03.
     96 vectors produced by pass  3 Test12= 2.37D-14 1.00D-09 XBig12= 1.38D-05 4.82D-04.
     96 vectors produced by pass  4 Test12= 2.37D-14 1.00D-09 XBig12= 1.21D-07 4.24D-05.
     96 vectors produced by pass  5 Test12= 2.37D-14 1.00D-09 XBig12= 7.50D-10 2.45D-06.
     95 vectors produced by pass  6 Test12= 2.37D-14 1.00D-09 XBig12= 4.44D-12 1.88D-07.
     38 vectors produced by pass  7 Test12= 2.37D-14 1.00D-09 XBig12= 2.40D-14 1.09D-08.
      5 vectors produced by pass  8 Test12= 2.37D-14 1.00D-09 XBig12= 1.16D-15 2.12D-09.
      1 vectors produced by pass  9 Test12= 2.37D-14 1.00D-09 XBig12= 3.54D-16 1.28D-09.
 InvSVY:  IOpt=1 It=  1 EMax= 8.88D-16
 Solved reduced A of dimension   715 with   102 vectors.
 End of Minotr F.D. properties file   721 does not exist.
 End of Minotr F.D. properties file   722 does not exist.
 End of Minotr F.D. properties file   788 does not exist.

 **********************************************************************

            Population analysis using the SCF density.

 **********************************************************************

 Orbital symmetries:
       Occupied  (A) (A) (A) (A) (A) (A) (A) (A) (A) (A) (A) (A)
                 (A) (A) (A) (A) (A) (A) (A) (A) (A) (A) (A) (A)
                 (A) (A) (A) (A) (A) (A) (A) (A) (A) (A) (A) (A)
                 (A) (A) (A) (A) (A) (A) (A) (A) (A) (A) (A) (A)
                 (A) (A) (A) (A) (A) (A)
       Virtual   (A) (A) (A) (A) (A) (A) (A) (A) (A) (A) (A) (A)
                 (A) (A) (A) (A) (A) (A) (A) (A) (A) (A) (A) (A)
                 (A) (A) (A) (A) (A) (A) (A) (A) (A) (A) (A) (A)
                 (A) (A) (A) (A) (A) (A) (A) (A) (A) (A) (A) (A)
                 (A) (A) (A) (A) (A) (A) (A) (A) (A) (A) (A) (A)
                 (A) (A) (A) (A) (A) (A) (A) (A) (A) (A) (A) (A)
                 (A) (A) (A) (A) (A) (A) (A) (A) (A) (A) (A) (A)
                 (A) (A) (A) (A) (A) (A) (A) (A) (A) (A) (A) (A)
                 (A) (A) (A) (A) (A) (A) (A) (A) (A) (A) (A) (A)
                 (A) (A) (A) (A) (A) (A) (A) (A) (A) (A) (A) (A)
                 (A) (A) (A) (A) (A) (A) (A) (A) (A) (A) (A) (A)
                 (A) (A) (A) (A) (A) (A) (A) (A) (A) (A) (A) (A)
                 (A) (A) (A) (A) (A) (A) (A) (A) (A) (A) (A) (A)
                 (A) (A) (A) (A) (A) (A) (A) (A) (A) (A) (A) (A)
                 (A) (A) (A) (A) (A) (A) (A) (A) (A) (A) (A) (A)
                 (A) (A) (A) (A) (A) (A) (A) (A) (A) (A) (A) (A)
                 (A) (A) (A) (A) (A) (A) (A) (A) (A) (A) (A) (A)
                 (A) (A) (A) (A) (A) (A) (A) (A) (A) (A) (A) (A)
                 (A) (A) (A) (A) (A) (A) (A) (A) (A) (A) (A) (A)
                 (A) (A) (A) (A) (A) (A) (A) (A) (A) (A) (A) (A)
                 (A) (A) (A) (A) (A) (A) (A) (A) (A) (A) (A) (A)
                 (A) (A) (A) (A) (A) (A) (A) (A) (A) (A) (A) (A)
                 (A) (A) (A) (A) (A) (A) (A) (A) (A) (A) (A) (A)
                 (A) (A) (A) (A) (A) (A) (A) (A) (A) (A) (A) (A)
                 (A) (A) (A) (A) (A) (A) (A) (A) (A) (A) (A) (A)
                 (A) (A) (A) (A) (A) (A) (A) (A) (A) (A) (A) (A)
                 (A) (A) (A) (A) (A) (A) (A) (A) (A) (A) (A) (A)
                 (A) (A) (A) (A) (A) (A) (A) (A) (A) (A) (A) (A)
                 (A) (A) (A) (A) (A) (A) (A) (A) (A) (A) (A) (A)
                 (A) (A) (A) (A) (A) (A) (A) (A) (A) (A) (A) (A)
                 (A) (A) (A) (A) (A) (A) (A) (A) (A) (A) (A) (A)
                 (A) (A) (A) (A) (A) (A) (A) (A) (A) (A) (A) (A)
                 (A) (A) (A) (A) (A) (A) (A) (A) (A) (A) (A) (A)
                 (A) (A) (A) (A) (A) (A) (A) (A) (A) (A) (A) (A)
                 (A) (A) (A) (A) (A) (A) (A) (A) (A) (A) (A) (A)
                 (A) (A) (A) (A) (A) (A) (A) (A) (A) (A) (A) (A)
                 (A) (A) (A) (A) (A) (A) (A)
 The electronic state is 1-A.
 Alpha  occ. eigenvalues --  -19.40484 -19.38838 -14.69624 -14.58768 -10.50438
 Alpha  occ. eigenvalues --  -10.49089 -10.48792 -10.47054 -10.46551 -10.45641
 Alpha  occ. eigenvalues --  -10.45528 -10.44452 -10.44302 -10.43859  -1.26322
 Alpha  occ. eigenvalues --   -1.24714  -1.22842  -1.18579  -1.06945  -1.05155
 Alpha  occ. eigenvalues --   -1.01818  -0.97341  -0.95046  -0.89457  -0.86325
 Alpha  occ. eigenvalues --   -0.85959  -0.83636  -0.78554  -0.76245  -0.75535
 Alpha  occ. eigenvalues --   -0.74330  -0.73442  -0.72301  -0.70851  -0.69140
 Alpha  occ. eigenvalues --   -0.67414  -0.66108  -0.65705  -0.63853  -0.63223
 Alpha  occ. eigenvalues --   -0.62724  -0.62350  -0.61688  -0.60525  -0.59666
 Alpha  occ. eigenvalues --   -0.58315  -0.57786  -0.57104  -0.55907  -0.54219
 Alpha  occ. eigenvalues --   -0.52130  -0.50303  -0.48182  -0.47150
 Alpha virt. eigenvalues --   -0.09989  -0.09229  -0.07245  -0.06160  -0.05277
 Alpha virt. eigenvalues --   -0.05068  -0.03576  -0.03462  -0.03203  -0.02997
 Alpha virt. eigenvalues --   -0.02638  -0.01905  -0.01301  -0.01195  -0.00550
 Alpha virt. eigenvalues --   -0.00087   0.00095   0.00602   0.01008   0.01158
 Alpha virt. eigenvalues --    0.01577   0.02243   0.02415   0.02974   0.03162
 Alpha virt. eigenvalues --    0.03435   0.03795   0.04098   0.04712   0.05079
 Alpha virt. eigenvalues --    0.05125   0.05338   0.05658   0.05760   0.06016
 Alpha virt. eigenvalues --    0.06319   0.06624   0.06823   0.06935   0.07119
 Alpha virt. eigenvalues --    0.07618   0.07822   0.07932   0.08030   0.08828
 Alpha virt. eigenvalues --    0.09350   0.09673   0.09746   0.10468   0.10654
 Alpha virt. eigenvalues --    0.10981   0.11057   0.11191   0.11972   0.12007
 Alpha virt. eigenvalues --    0.12717   0.12958   0.13265   0.13847   0.14372
 Alpha virt. eigenvalues --    0.14497   0.14941   0.15684   0.15848   0.16132
 Alpha virt. eigenvalues --    0.16628   0.16858   0.17256   0.17422   0.17760
 Alpha virt. eigenvalues --    0.18348   0.18531   0.18868   0.19054   0.19249
 Alpha virt. eigenvalues --    0.19513   0.19820   0.20189   0.20706   0.21043
 Alpha virt. eigenvalues --    0.21451   0.21598   0.22041   0.22190   0.22526
 Alpha virt. eigenvalues --    0.23369   0.23654   0.24167   0.24260   0.24931
 Alpha virt. eigenvalues --    0.25673   0.25909   0.26423   0.26800   0.27119
 Alpha virt. eigenvalues --    0.27569   0.27927   0.28048   0.28948   0.29290
 Alpha virt. eigenvalues --    0.29648   0.30484   0.31008   0.31223   0.31410
 Alpha virt. eigenvalues --    0.31819   0.32058   0.32742   0.33123   0.33526
 Alpha virt. eigenvalues --    0.34016   0.34257   0.34528   0.35267   0.35551
 Alpha virt. eigenvalues --    0.36015   0.36403   0.37138   0.37855   0.38808
 Alpha virt. eigenvalues --    0.38943   0.39573   0.39754   0.40608   0.40715
 Alpha virt. eigenvalues --    0.41094   0.41536   0.42028   0.42664   0.42753
 Alpha virt. eigenvalues --    0.43257   0.43719   0.43958   0.45176   0.45463
 Alpha virt. eigenvalues --    0.45924   0.46057   0.46724   0.47503   0.47713
 Alpha virt. eigenvalues --    0.47818   0.48455   0.48616   0.49476   0.49715
 Alpha virt. eigenvalues --    0.50261   0.50730   0.51052   0.51974   0.52136
 Alpha virt. eigenvalues --    0.52428   0.52863   0.53541   0.53736   0.54867
 Alpha virt. eigenvalues --    0.54937   0.55381   0.55461   0.56092   0.56428
 Alpha virt. eigenvalues --    0.56673   0.56987   0.57930   0.58019   0.58471
 Alpha virt. eigenvalues --    0.58841   0.59355   0.59652   0.59861   0.60718
 Alpha virt. eigenvalues --    0.61049   0.61374   0.61858   0.62268   0.62737
 Alpha virt. eigenvalues --    0.63418   0.63835   0.63927   0.65255   0.65414
 Alpha virt. eigenvalues --    0.65800   0.66213   0.66995   0.67571   0.67911
 Alpha virt. eigenvalues --    0.68501   0.69140   0.69165   0.69875   0.70116
 Alpha virt. eigenvalues --    0.70908   0.71239   0.71815   0.72071   0.72525
 Alpha virt. eigenvalues --    0.73599   0.74622   0.74779   0.75106   0.75388
 Alpha virt. eigenvalues --    0.76219   0.77081   0.77689   0.77902   0.78003
 Alpha virt. eigenvalues --    0.78835   0.79938   0.80844   0.81205   0.82505
 Alpha virt. eigenvalues --    0.83058   0.84213   0.84968   0.85380   0.85940
 Alpha virt. eigenvalues --    0.86282   0.86925   0.87679   0.88449   0.89488
 Alpha virt. eigenvalues --    0.90696   0.90947   0.91227   0.92248   0.93592
 Alpha virt. eigenvalues --    0.93890   0.94786   0.95364   0.96481   0.97079
 Alpha virt. eigenvalues --    0.97882   0.99410   0.99886   1.00867   1.02085
 Alpha virt. eigenvalues --    1.03139   1.04187   1.04307   1.05137   1.05913
 Alpha virt. eigenvalues --    1.06968   1.07403   1.07759   1.09307   1.10408
 Alpha virt. eigenvalues --    1.12311   1.13123   1.13335   1.13945   1.14441
 Alpha virt. eigenvalues --    1.15077   1.16136   1.17835   1.19063   1.19684
 Alpha virt. eigenvalues --    1.20772   1.21526   1.22580   1.24586   1.25633
 Alpha virt. eigenvalues --    1.27661   1.29837   1.29974   1.30138   1.31020
 Alpha virt. eigenvalues --    1.32298   1.33647   1.34057   1.35882   1.36559
 Alpha virt. eigenvalues --    1.38780   1.39056   1.39617   1.40702   1.40747
 Alpha virt. eigenvalues --    1.41642   1.42845   1.43505   1.45165   1.46185
 Alpha virt. eigenvalues --    1.46603   1.47859   1.49579   1.50634   1.51129
 Alpha virt. eigenvalues --    1.51894   1.52564   1.53768   1.54894   1.55575
 Alpha virt. eigenvalues --    1.56408   1.57464   1.58683   1.59240   1.60714
 Alpha virt. eigenvalues --    1.61297   1.61642   1.62926   1.63403   1.63827
 Alpha virt. eigenvalues --    1.64668   1.65735   1.66131   1.68039   1.69241
 Alpha virt. eigenvalues --    1.69587   1.71952   1.72982   1.73548   1.73872
 Alpha virt. eigenvalues --    1.75252   1.75998   1.76239   1.77065   1.78534
 Alpha virt. eigenvalues --    1.79363   1.80260   1.80968   1.82596   1.82810
 Alpha virt. eigenvalues --    1.83284   1.83834   1.85500   1.86071   1.86496
 Alpha virt. eigenvalues --    1.86976   1.88165   1.88985   1.89891   1.90537
 Alpha virt. eigenvalues --    1.90682   1.91680   1.93589   1.94229   1.95673
 Alpha virt. eigenvalues --    1.96396   1.96923   1.98342   1.99112   2.00146
 Alpha virt. eigenvalues --    2.01929   2.02995   2.03251   2.03955   2.06138
 Alpha virt. eigenvalues --    2.07062   2.07867   2.08894   2.09465   2.10647
 Alpha virt. eigenvalues --    2.11195   2.12047   2.13938   2.14847   2.16124
 Alpha virt. eigenvalues --    2.17357   2.17890   2.19451   2.21096   2.22798
 Alpha virt. eigenvalues --    2.23082   2.23359   2.23911   2.25599   2.26205
 Alpha virt. eigenvalues --    2.28222   2.29074   2.29236   2.30137   2.30998
 Alpha virt. eigenvalues --    2.33108   2.34953   2.35458   2.36287   2.37351
 Alpha virt. eigenvalues --    2.40408   2.42148   2.42873   2.43438   2.45343
 Alpha virt. eigenvalues --    2.47155   2.47656   2.50123   2.51360   2.53055
 Alpha virt. eigenvalues --    2.53376   2.54063   2.55697   2.56564   2.58339
 Alpha virt. eigenvalues --    2.60153   2.60526   2.62759   2.64975   2.65307
 Alpha virt. eigenvalues --    2.67437   2.68149   2.69239   2.69846   2.72410
 Alpha virt. eigenvalues --    2.73984   2.74222   2.75151   2.77024   2.77514
 Alpha virt. eigenvalues --    2.80245   2.80808   2.81249   2.84396   2.85485
 Alpha virt. eigenvalues --    2.86738   2.88255   2.89423   2.91245   2.92551
 Alpha virt. eigenvalues --    2.97606   3.03216   3.06774   3.10161   3.14109
 Alpha virt. eigenvalues --    3.17967   3.30509   3.32267   3.36261   3.37104
 Alpha virt. eigenvalues --    3.38114   3.43255   3.48161   3.49849   3.53387
 Alpha virt. eigenvalues --    3.55530   3.59552   3.67793   3.78987   3.84383
 Alpha virt. eigenvalues --    3.97177   4.08109   4.18285   4.76029
          Condensed to atoms (all electrons):
               1          2          3          4          5          6
     1  C   13.052632  -3.232733  -1.364591  -0.066782  -1.142812   0.400820
     2  C   -3.232733  19.406180  -7.726261  -0.188226  -0.906295  -0.139175
     3  C   -1.364591  -7.726261  20.294223  -2.581628   1.021740  -0.605572
     4  C   -0.066782  -0.188226  -2.581628  10.026182  -1.775378   0.269940
     5  C   -1.142812  -0.906295   1.021740  -1.775378   8.968851   0.211411
     6  N    0.400820  -0.139175  -0.605572   0.269940   0.211411   7.404429
     7  C   -0.667432  -5.012287  -1.824214   0.399067  -0.562161   0.226949
     8  C   -0.003599   0.726966  -0.188700  -0.045080  -0.101499  -0.001855
     9  C   -0.177966   0.263296  -0.052490  -0.019431   0.019386  -0.009378
    10  C   -0.038083  -0.080737  -0.067015   0.014560  -0.031602   0.030996
    11  N   -0.330608   0.698881  -0.320862  -0.086444   0.137451  -0.018547
    12  O   -0.054083   0.031345  -0.029196  -0.004050   0.007165   0.009310
    13  H   -0.008415   0.052654   0.013073  -0.004650   0.000918   0.000325
    14  H    0.021255  -0.035710   0.010225   0.000070   0.001292  -0.001252
    15  H   -0.022129   0.013057  -0.004812  -0.002614   0.000908  -0.001112
    16  H   -0.003416  -0.343496   0.045367  -0.010014  -0.002752   0.017557
    17  H    0.009375   0.190016  -0.024667  -0.001091  -0.002070  -0.007972
    18  H   -0.014851  -0.065847   0.003077   0.004649  -0.004562   0.000652
    19  H   -0.040617   0.758594  -0.050807  -0.023737   0.023626   0.002197
    20  H   -0.777037  -0.689705  -0.043732  -0.048799   0.108708  -0.281498
    21  H    0.155448  -0.124633   0.252375  -0.065452  -0.256148  -0.184042
    22  H    0.032620   0.050312   0.404602  -0.938097   0.278579  -0.076305
    23  H   -0.068785   0.900698  -2.115557   0.469882  -0.208496   0.022112
    24  C   -0.038348   0.130820  -0.010303   0.062791  -0.022444   0.003877
    25  H   -0.057645  -0.038668  -0.178542   0.007110  -0.004951  -0.016980
    26  H    0.014772  -0.010075   0.007059  -0.000930   0.000104  -0.004690
    27  H    0.008346   0.044270  -0.022785   0.009880  -0.012761   0.006006
    28  O   -0.030828  -0.024266  -0.002640  -0.011300   0.039938  -0.022489
    29  H   -0.090978   0.003858   0.001565  -0.026595   0.044538   0.113589
    30  H    0.009589   0.007644  -0.002588   0.004006  -0.004396  -0.005400
    31  H   -0.004421  -0.042393  -0.031763   0.013063  -0.006205  -0.001499
    32  H    0.026260   0.024821   0.043442   0.010212  -0.011565   0.004486
    33  H    0.004397   0.030808   0.075826  -0.016558   0.006615   0.001349
               7          8          9         10         11         12
     1  C   -0.667432  -0.003599  -0.177966  -0.038083  -0.330608  -0.054083
     2  C   -5.012287   0.726966   0.263296  -0.080737   0.698881   0.031345
     3  C   -1.824214  -0.188700  -0.052490  -0.067015  -0.320862  -0.029196
     4  C    0.399067  -0.045080  -0.019431   0.014560  -0.086444  -0.004050
     5  C   -0.562161  -0.101499   0.019386  -0.031602   0.137451   0.007165
     6  N    0.226949  -0.001855  -0.009378   0.030996  -0.018547   0.009310
     7  C   19.598207  -2.249476  -0.118982  -0.454520  -2.732411   0.043060
     8  C   -2.249476   7.936915  -0.347856   0.373725  -1.159317   0.037357
     9  C   -0.118982  -0.347856   5.814169   0.213106  -0.258036   0.032618
    10  C   -0.454520   0.373725   0.213106   5.503406   0.004843   0.020176
    11  N   -2.732411  -1.159317  -0.258036   0.004843  12.134693  -0.275096
    12  O    0.043060   0.037357   0.032618   0.020176  -0.275096   8.009091
    13  H    0.213283  -0.149813   0.048279  -0.286864   0.011453  -0.015220
    14  H    0.054221   0.227394  -0.289845   0.102496   0.012168  -0.002414
    15  H    0.078596   0.110212  -0.169474  -0.136442   0.041347  -0.004830
    16  H    0.059667  -0.365513   0.266641   0.040726   0.165334   0.005902
    17  H    0.350117  -0.725356   0.084161  -0.140242   0.239760   0.000164
    18  H    0.302766   0.188325  -0.009614  -0.121805  -0.907455   0.069715
    19  H   -2.724603   0.670965   0.007770  -0.014108  -0.025993   0.008527
    20  H    0.408785  -0.001556   0.010279   0.025031  -0.328393   0.041229
    21  H    0.002250   0.000925   0.000279  -0.000460   0.006174  -0.000279
    22  H   -0.022385   0.006154   0.000651  -0.001366  -0.004171   0.000091
    23  H    0.240534  -0.035361  -0.015281   0.019624  -0.001811  -0.001753
    24  C   -0.403210  -0.209121   0.062233  -0.083300   0.858714  -0.037082
    25  H   -0.066908   0.115521  -0.121016  -0.255223   0.625285  -0.077946
    26  H    0.016697   0.002907  -0.002106  -0.000650   0.001396   0.351482
    27  H   -0.050250   0.003234  -0.002582   0.008889   0.032312   0.335654
    28  O   -0.000640  -0.008364   0.006578  -0.003767   0.005016  -0.059836
    29  H    0.014164  -0.005541   0.002091   0.000380  -0.004130   0.007627
    30  H   -0.002972   0.000863  -0.000337  -0.000178   0.003097  -0.000312
    31  H    0.105141  -0.043418   0.039127   0.034974  -0.267567   0.009115
    32  H    0.047424   0.088123  -0.043016  -0.066301   0.107946   0.002892
    33  H   -0.003346  -0.013678   0.055408   0.100017  -0.512443  -0.001502
              13         14         15         16         17         18
     1  C   -0.008415   0.021255  -0.022129  -0.003416   0.009375  -0.014851
     2  C    0.052654  -0.035710   0.013057  -0.343496   0.190016  -0.065847
     3  C    0.013073   0.010225  -0.004812   0.045367  -0.024667   0.003077
     4  C   -0.004650   0.000070  -0.002614  -0.010014  -0.001091   0.004649
     5  C    0.000918   0.001292   0.000908  -0.002752  -0.002070  -0.004562
     6  N    0.000325  -0.001252  -0.001112   0.017557  -0.007972   0.000652
     7  C    0.213283   0.054221   0.078596   0.059667   0.350117   0.302766
     8  C   -0.149813   0.227394   0.110212  -0.365513  -0.725356   0.188325
     9  C    0.048279  -0.289845  -0.169474   0.266641   0.084161  -0.009614
    10  C   -0.286864   0.102496  -0.136442   0.040726  -0.140242  -0.121805
    11  N    0.011453   0.012168   0.041347   0.165334   0.239760  -0.907455
    12  O   -0.015220  -0.002414  -0.004830   0.005902   0.000164   0.069715
    13  H    2.111803  -0.165392   0.163057  -0.043689   0.046771  -0.491936
    14  H   -0.165392   1.938821  -0.496099   0.125223  -0.288659   0.043447
    15  H    0.163057  -0.496099   2.085944  -0.370249   0.196900  -0.223386
    16  H   -0.043689   0.125223  -0.370249   2.316557  -0.594219   0.022285
    17  H    0.046771  -0.288659   0.196900  -0.594219   2.372695  -0.015605
    18  H   -0.491936   0.043447  -0.223386   0.022285  -0.015605   2.609487
    19  H   -0.110510   0.043029  -0.068696   0.212427  -0.377713   0.064802
    20  H    0.005948   0.008166   0.019435  -0.119800   0.024021  -0.010110
    21  H    0.000107   0.000063  -0.000015   0.000658   0.000557  -0.000152
    22  H   -0.000286  -0.000006   0.000008  -0.000106  -0.000749   0.000073
    23  H    0.001406   0.000279   0.000660  -0.003069   0.003480  -0.002212
    24  C   -0.029160  -0.002577  -0.008325   0.013621   0.023705  -0.072249
    25  H   -0.010845   0.000345   0.069703  -0.028015   0.009189   0.042498
    26  H    0.000639  -0.000421   0.000441   0.001067  -0.000341  -0.001634
    27  H   -0.001662  -0.000438   0.001789  -0.001726   0.000417  -0.001143
    28  O   -0.000378   0.000295   0.001007   0.000519  -0.000271   0.000188
    29  H   -0.000356   0.000045  -0.000305  -0.000732  -0.000033   0.001137
    30  H    0.000096  -0.000049   0.000196   0.000634   0.000010  -0.000313
    31  H    0.004121  -0.001349   0.005731  -0.000608  -0.000578  -0.002929
    32  H   -0.014651   0.002488  -0.012708   0.011660  -0.006222   0.005221
    33  H    0.055674  -0.002084   0.004531  -0.003688   0.010114   0.032710
              19         20         21         22         23         24
     1  C   -0.040617  -0.777037   0.155448   0.032620  -0.068785  -0.038348
     2  C    0.758594  -0.689705  -0.124633   0.050312   0.900698   0.130820
     3  C   -0.050807  -0.043732   0.252375   0.404602  -2.115557  -0.010303
     4  C   -0.023737  -0.048799  -0.065452  -0.938097   0.469882   0.062791
     5  C    0.023626   0.108708  -0.256148   0.278579  -0.208496  -0.022444
     6  N    0.002197  -0.281498  -0.184042  -0.076305   0.022112   0.003877
     7  C   -2.724603   0.408785   0.002250  -0.022385   0.240534  -0.403210
     8  C    0.670965  -0.001556   0.000925   0.006154  -0.035361  -0.209121
     9  C    0.007770   0.010279   0.000279   0.000651  -0.015281   0.062233
    10  C   -0.014108   0.025031  -0.000460  -0.001366   0.019624  -0.083300
    11  N   -0.025993  -0.328393   0.006174  -0.004171  -0.001811   0.858714
    12  O    0.008527   0.041229  -0.000279   0.000091  -0.001753  -0.037082
    13  H   -0.110510   0.005948   0.000107  -0.000286   0.001406  -0.029160
    14  H    0.043029   0.008166   0.000063  -0.000006   0.000279  -0.002577
    15  H   -0.068696   0.019435  -0.000015   0.000008   0.000660  -0.008325
    16  H    0.212427  -0.119800   0.000658  -0.000106  -0.003069   0.013621
    17  H   -0.377713   0.024021   0.000557  -0.000749   0.003480   0.023705
    18  H    0.064802  -0.010110  -0.000152   0.000073  -0.002212  -0.072249
    19  H    3.649962  -0.020299   0.000282  -0.000044  -0.150093  -0.008143
    20  H   -0.020299   3.887183   0.013296  -0.005853  -0.020684  -0.041253
    21  H    0.000282   0.013296   1.882971  -0.111165  -0.003870   0.002968
    22  H   -0.000044  -0.005853  -0.111165   2.122185  -0.149929  -0.010397
    23  H   -0.150093  -0.020684  -0.003870  -0.149929   2.945330   0.046639
    24  C   -0.008143  -0.041253   0.002968  -0.010397   0.046639   4.403061
    25  H   -0.030404  -0.027698  -0.003458   0.003224   0.006695  -0.175740
    26  H    0.000799   0.006485   0.000032   0.000060  -0.000280  -0.008817
    27  H   -0.001214  -0.042912  -0.000380  -0.000173   0.000939   0.009875
    28  O    0.000546   0.015040   0.000969   0.000147  -0.000574   0.000779
    29  H   -0.001127  -0.012607  -0.026270   0.004263  -0.001167  -0.003372
    30  H   -0.000053  -0.000946   0.001541  -0.000161   0.000050   0.000341
    31  H    0.013745  -0.000982   0.000410  -0.001344   0.002118   0.232744
    32  H    0.041596   0.008525  -0.002782   0.000598  -0.026210   0.071207
    33  H   -0.007850   0.000011   0.000185   0.000090   0.012577   0.199048
              25         26         27         28         29         30
     1  C   -0.057645   0.014772   0.008346  -0.030828  -0.090978   0.009589
     2  C   -0.038668  -0.010075   0.044270  -0.024266   0.003858   0.007644
     3  C   -0.178542   0.007059  -0.022785  -0.002640   0.001565  -0.002588
     4  C    0.007110  -0.000930   0.009880  -0.011300  -0.026595   0.004006
     5  C   -0.004951   0.000104  -0.012761   0.039938   0.044538  -0.004396
     6  N   -0.016980  -0.004690   0.006006  -0.022489   0.113589  -0.005400
     7  C   -0.066908   0.016697  -0.050250  -0.000640   0.014164  -0.002972
     8  C    0.115521   0.002907   0.003234  -0.008364  -0.005541   0.000863
     9  C   -0.121016  -0.002106  -0.002582   0.006578   0.002091  -0.000337
    10  C   -0.255223  -0.000650   0.008889  -0.003767   0.000380  -0.000178
    11  N    0.625285   0.001396   0.032312   0.005016  -0.004130   0.003097
    12  O   -0.077946   0.351482   0.335654  -0.059836   0.007627  -0.000312
    13  H   -0.010845   0.000639  -0.001662  -0.000378  -0.000356   0.000096
    14  H    0.000345  -0.000421  -0.000438   0.000295   0.000045  -0.000049
    15  H    0.069703   0.000441   0.001789   0.001007  -0.000305   0.000196
    16  H   -0.028015   0.001067  -0.001726   0.000519  -0.000732   0.000634
    17  H    0.009189  -0.000341   0.000417  -0.000271  -0.000033   0.000010
    18  H    0.042498  -0.001634  -0.001143   0.000188   0.001137  -0.000313
    19  H   -0.030404   0.000799  -0.001214   0.000546  -0.001127  -0.000053
    20  H   -0.027698   0.006485  -0.042912   0.015040  -0.012607  -0.000946
    21  H   -0.003458   0.000032  -0.000380   0.000969  -0.026270   0.001541
    22  H    0.003224   0.000060  -0.000173   0.000147   0.004263  -0.000161
    23  H    0.006695  -0.000280   0.000939  -0.000574  -0.001167   0.000050
    24  C   -0.175740  -0.008817   0.009875   0.000779  -0.003372   0.000341
    25  H    1.168572  -0.027073  -0.000569  -0.007420  -0.001599   0.001688
    26  H   -0.027073   0.597800  -0.129672  -0.002284  -0.002101   0.001159
    27  H   -0.000569  -0.129672   0.573937  -0.002013  -0.004169  -0.002844
    28  O   -0.007420  -0.002284  -0.002013   7.811483   0.326289   0.351145
    29  H   -0.001599  -0.002101  -0.004169   0.326289   0.576944  -0.106164
    30  H    0.001688   0.001159  -0.002844   0.351145  -0.106164   0.559024
    31  H    0.030273  -0.000363   0.000842  -0.000551  -0.000821   0.000162
    32  H   -0.027414   0.000966  -0.002524   0.000883   0.000535  -0.000113
    33  H   -0.114221   0.000892   0.001834   0.000297   0.000234  -0.000084
              31         32         33
     1  C   -0.004421   0.026260   0.004397
     2  C   -0.042393   0.024821   0.030808
     3  C   -0.031763   0.043442   0.075826
     4  C    0.013063   0.010212  -0.016558
     5  C   -0.006205  -0.011565   0.006615
     6  N   -0.001499   0.004486   0.001349
     7  C    0.105141   0.047424  -0.003346
     8  C   -0.043418   0.088123  -0.013678
     9  C    0.039127  -0.043016   0.055408
    10  C    0.034974  -0.066301   0.100017
    11  N   -0.267567   0.107946  -0.512443
    12  O    0.009115   0.002892  -0.001502
    13  H    0.004121  -0.014651   0.055674
    14  H   -0.001349   0.002488  -0.002084
    15  H    0.005731  -0.012708   0.004531
    16  H   -0.000608   0.011660  -0.003688
    17  H   -0.000578  -0.006222   0.010114
    18  H   -0.002929   0.005221   0.032710
    19  H    0.013745   0.041596  -0.007850
    20  H   -0.000982   0.008525   0.000011
    21  H    0.000410  -0.002782   0.000185
    22  H   -0.001344   0.000598   0.000090
    23  H    0.002118  -0.026210   0.012577
    24  C    0.232744   0.071207   0.199048
    25  H    0.030273  -0.027414  -0.114221
    26  H   -0.000363   0.000966   0.000892
    27  H    0.000842  -0.002524   0.001834
    28  O   -0.000551   0.000883   0.000297
    29  H   -0.000821   0.000535   0.000234
    30  H    0.000162  -0.000113  -0.000084
    31  H    1.952042  -0.516243  -0.368155
    32  H   -0.516243   1.779797  -0.428964
    33  H   -0.368155  -0.428964   2.065853
 Mulliken charges:
               1
     1  C    0.500650
     2  C    1.326289
     3  C    1.076149
     4  C    0.625443
     5  C    0.184866
     6  N   -0.348240
     7  C    0.734867
     8  C    1.165518
     9  C    0.711337
    10  C    1.289714
    11  N   -0.852585
    12  O   -0.458922
    13  H   -0.395783
    14  H   -0.305023
    15  H   -0.272326
    16  H   -0.414755
    17  H   -0.375662
    18  H   -0.445229
    19  H   -0.842855
    20  H   -1.108273
    21  H   -0.542384
    22  H   -0.581122
    23  H   -0.867892
    24  C    1.041420
    25  H    0.192231
    26  H    0.186679
    27  H    0.241593
    28  O   -0.383498
    29  H    0.190809
    30  H    0.185667
    31  H   -0.152420
    32  H   -0.120366
    33  H   -0.185896
 Sum of Mulliken charges =   1.00000
 Mulliken charges with hydrogens summed into heavy atoms:
               1
     1  C   -0.607623
     2  C    1.326289
     3  C    0.208257
     4  C    0.044321
     5  C   -0.357519
     6  N   -0.348240
     7  C   -0.107988
     8  C    0.375102
     9  C    0.133988
    10  C    0.448702
    11  N   -0.660354
    12  O   -0.030650
    24  C    0.582738
    28  O   -0.007022
 APT charges:
               1
     1  C    0.271575
     2  C    0.438863
     3  C   -0.276488
     4  C    0.838045
     5  C   -0.236174
     6  N   -0.491683
     7  C    0.037484
     8  C    0.472919
     9  C    0.622661
    10  C    0.374734
    11  N   -1.859428
    12  O   -1.428003
    13  H    0.064480
    14  H    0.075431
    15  H    0.149458
    16  H   -0.066300
    17  H    0.114324
    18  H   -0.079365
    19  H   -0.119220
    20  H   -0.462819
    21  H    0.281299
    22  H    0.038695
    23  H   -0.262547
    24  C    0.063392
    25  H    0.250711
    26  H    0.845597
    27  H    0.582956
    28  O   -1.348615
    29  H    0.337609
    30  H    1.027529
    31  H    0.148128
    32  H    0.465124
    33  H    0.129629
 Sum of APT charges =   1.00000
 APT charges with hydrogens summed into heavy atoms:
               1
     1  C   -0.191244
     2  C    0.438863
     3  C   -0.539035
     4  C    0.876740
     5  C    0.045125
     6  N   -0.491683
     7  C   -0.081736
     8  C    0.520943
     9  C    0.847550
    10  C    0.359849
    11  N   -1.608717
    12  O    0.000551
    24  C    0.806273
    28  O    0.016523
 Electronic spatial extent (au):  <R**2>=           3083.2406
 Charge=              1.0000 electrons
 Dipole moment (field-independent basis, Debye):
    X=             -3.6752    Y=             -0.7102    Z=              1.8487  Tot=              4.1748
 Quadrupole moment (field-independent basis, Debye-Ang):
   XX=            -50.2449   YY=            -59.0180   ZZ=            -75.3864
   XY=              0.3210   XZ=             -2.5390   YZ=             -2.4210
 Traceless Quadrupole moment (field-independent basis, Debye-Ang):
   XX=             11.3048   YY=              2.5318   ZZ=            -13.8366
   XY=              0.3210   XZ=             -2.5390   YZ=             -2.4210
 Octapole moment (field-independent basis, Debye-Ang**2):
  XXX=              3.7726  YYY=             72.2978  ZZZ=             14.2731  XYY=             21.0350
  XXY=              4.8648  XXZ=              6.6251  XZZ=            -24.6320  YZZ=              9.1869
  YYZ=              9.7155  XYZ=            -17.5525
 Hexadecapole moment (field-independent basis, Debye-Ang**3):
 XXXX=          -1797.8508 YYYY=           -803.7802 ZZZZ=           -522.4951 XXXY=              6.9648
 XXXZ=             14.4110 YYYX=             87.0055 YYYZ=            -15.7186 ZZZX=            -18.5214
 ZZZY=              6.8660 XXYY=           -428.8940 XXZZ=           -436.8697 YYZZ=           -268.1854
 XXYZ=            -23.8042 YYXZ=            -37.3683 ZZXY=              9.3917
 N-N= 9.778945274662D+02 E-N=-3.458805275939D+03  KE= 6.480506895218D+02
  Exact polarizability:   0.000   0.000   0.000   0.000   0.000   0.000
 Approx polarizability: 171.949  -0.104 161.440   3.317 -12.352 131.621
 Calling FoFJK, ICntrl=    100147 FMM=F ISym2X=0 I1Cent= 0 IOpClX= 0 NMat=1 NMatS=1 NMatT=0.
 ***** Axes restored to original set *****
 -------------------------------------------------------------------
 Center     Atomic                   Forces (Hartrees/Bohr)
 Number     Number              X              Y              Z
 -------------------------------------------------------------------
      1        6          -0.000000976    0.000000277   -0.000000645
      2        6          -0.000000008   -0.000000533   -0.000000886
      3        6           0.000000330    0.000000423   -0.000001689
      4        6          -0.000000102    0.000000319   -0.000002455
      5        6           0.000000094   -0.000000049   -0.000002474
      6        7          -0.000000723   -0.000000019   -0.000001550
      7        6           0.000000451    0.000000072    0.000000819
      8        6          -0.000003208   -0.000000501    0.000000255
      9        6           0.000001718   -0.000001561    0.000002196
     10        6           0.000001140    0.000001579    0.000001571
     11        7          -0.000000439   -0.000000629   -0.000000411
     12        8          -0.000000206   -0.000000017   -0.000000353
     13        1          -0.000000143    0.000000007    0.000002166
     14        1          -0.000000739   -0.000000073    0.000001828
     15        1          -0.000001504   -0.000000787    0.000001373
     16        1          -0.000001164   -0.000000851    0.000000102
     17        1          -0.000001520   -0.000000967    0.000000235
     18        1           0.000000748    0.000000145    0.000002923
     19        1           0.000000072    0.000000093    0.000000008
     20        1          -0.000001113    0.000000146   -0.000000458
     21        1          -0.000000233    0.000000120   -0.000002966
     22        1           0.000000345    0.000000485   -0.000003137
     23        1           0.000000373    0.000000393   -0.000001710
     24        6           0.000000875    0.000000698    0.000000600
     25        1           0.000001366   -0.000000160    0.000001149
     26        1           0.000000130    0.000000389    0.000002059
     27        1           0.000000803    0.000000054    0.000001056
     28        8           0.000000186   -0.000001639   -0.000000489
     29        1           0.000000331    0.000001162   -0.000000419
     30        1          -0.000001203   -0.000001130   -0.000000289
     31        1           0.000001536    0.000000907    0.000001146
     32        1           0.000001367    0.000000809   -0.000000101
     33        1           0.000001418    0.000000836    0.000000548
 -------------------------------------------------------------------
 Cartesian Forces:  Max     0.000003208 RMS     0.000001145
 FormGI is forming the generalized inverse of G from B-inverse, IUseBI=4.

 GradGradGradGradGradGradGradGradGradGradGradGradGradGradGradGradGradGrad
 Berny optimization.
 Internal  Forces:  Max     0.000005511 RMS     0.000000794
 Search for a local minimum.
 Step number   1 out of a maximum of  196
 All quantities printed in internal units (Hartrees-Bohrs-Radians)
 Mixed Optimization -- En-DIIS/RFO-DIIS
 Second derivative matrix not updated -- analytic derivatives used.
 ITU=  0
     Eigenvalues ---    0.00013   0.00046   0.00075   0.00141   0.00256
     Eigenvalues ---    0.00440   0.00541   0.00815   0.01568   0.01622
     Eigenvalues ---    0.01700   0.01730   0.01810   0.01943   0.01993
     Eigenvalues ---    0.02110   0.02337   0.02786   0.02788   0.03042
     Eigenvalues ---    0.03213   0.03424   0.03678   0.03778   0.03904
     Eigenvalues ---    0.03997   0.04095   0.04137   0.04252   0.04503
     Eigenvalues ---    0.04703   0.04751   0.04863   0.05072   0.05273
     Eigenvalues ---    0.05754   0.06249   0.06463   0.06765   0.06975
     Eigenvalues ---    0.08257   0.08791   0.09517   0.09817   0.10066
     Eigenvalues ---    0.11129   0.11847   0.12149   0.13105   0.13466
     Eigenvalues ---    0.13636   0.16897   0.17728   0.18512   0.19263
     Eigenvalues ---    0.19844   0.21417   0.22584   0.23089   0.24010
     Eigenvalues ---    0.25000   0.27337   0.27883   0.28716   0.30337
     Eigenvalues ---    0.32912   0.33857   0.34216   0.34344   0.34574
     Eigenvalues ---    0.34708   0.35039   0.35058   0.35172   0.35234
     Eigenvalues ---    0.35275   0.35289   0.35672   0.36009   0.36266
     Eigenvalues ---    0.36364   0.36877   0.38660   0.45058   0.45725
     Eigenvalues ---    0.46923   0.48732   0.51042   0.53602   0.55788
     Eigenvalues ---    0.56077   0.57841   1.83163
 RFO step:  Lambda= 0.00000000D+00 EMin= 1.34174131D-04
 Linear search not attempted -- first point.
 Iteration  1 RMS(Cart)=  0.00009960 RMS(Int)=  0.00000002
 Iteration  2 RMS(Cart)=  0.00000002 RMS(Int)=  0.00000001
 Variable       Old X    -DE/DX   Delta X   Delta X   Delta X     New X
                                 (Linear)    (Quad)   (Total)
    R1        2.63508   0.00000   0.00000   0.00000   0.00000   2.63508
    R2        2.51750   0.00000   0.00000  -0.00000  -0.00000   2.51750
    R3        2.06326   0.00000   0.00000  -0.00000  -0.00000   2.06325
    R4        2.63587  -0.00000   0.00000  -0.00000  -0.00000   2.63587
    R5        2.84510   0.00000   0.00000  -0.00000  -0.00000   2.84510
    R6        2.62983   0.00000   0.00000   0.00000   0.00000   2.62983
    R7        2.06184  -0.00000   0.00000  -0.00000  -0.00000   2.06184
    R8        2.63332  -0.00000   0.00000  -0.00000  -0.00000   2.63332
    R9        2.05651   0.00000   0.00000  -0.00000  -0.00000   2.05651
   R10        2.52739  -0.00000   0.00000  -0.00000  -0.00000   2.52739
   R11        2.06022   0.00000   0.00000   0.00000   0.00000   2.06022
   R12        2.92202  -0.00000   0.00000  -0.00001  -0.00001   2.92201
   R13        2.86854  -0.00000   0.00000  -0.00000  -0.00000   2.86854
   R14        2.07420  -0.00000   0.00000   0.00000   0.00000   2.07420
   R15        2.91970   0.00000   0.00000   0.00001   0.00001   2.91971
   R16        2.06682  -0.00000   0.00000  -0.00000  -0.00000   2.06682
   R17        2.06846  -0.00000   0.00000  -0.00000  -0.00000   2.06846
   R18        2.87909   0.00000   0.00000   0.00001   0.00001   2.87910
   R19        2.06669  -0.00000   0.00000  -0.00000  -0.00000   2.06669
   R20        2.07162  -0.00000   0.00000  -0.00000  -0.00000   2.07162
   R21        2.82049   0.00000   0.00000   0.00000   0.00000   2.82050
   R22        2.07388  -0.00000   0.00000  -0.00000  -0.00000   2.07388
   R23        2.06801  -0.00000   0.00000  -0.00000  -0.00000   2.06800
   R24        2.79419   0.00000   0.00000   0.00000   0.00000   2.79419
   R25        1.98315  -0.00000   0.00000  -0.00000  -0.00000   1.98315
   R26        3.21474  -0.00000   0.00000   0.00000   0.00000   3.21475
   R27        1.81381  -0.00000   0.00000  -0.00000  -0.00000   1.81381
   R28        1.86232  -0.00000   0.00000  -0.00001  -0.00001   1.86231
   R29        2.06718  -0.00000   0.00000  -0.00000  -0.00000   2.06717
   R30        2.06731   0.00000   0.00000  -0.00000  -0.00000   2.06731
   R31        2.06941  -0.00000   0.00000   0.00000   0.00000   2.06941
   R32        3.23734  -0.00000   0.00000   0.00002   0.00002   3.23737
   R33        1.84250  -0.00000   0.00000  -0.00000  -0.00000   1.84250
   R34        1.81299  -0.00000   0.00000  -0.00000  -0.00000   1.81299
    A1        2.16394  -0.00000   0.00000   0.00000   0.00000   2.16394
    A2        2.10295   0.00000   0.00000   0.00001   0.00001   2.10296
    A3        2.01605  -0.00000   0.00000  -0.00001  -0.00001   2.01604
    A4        2.05257  -0.00000   0.00000  -0.00000  -0.00000   2.05257
    A5        2.09437   0.00000   0.00000   0.00000   0.00000   2.09437
    A6        2.13533  -0.00000   0.00000  -0.00000  -0.00000   2.13533
    A7        2.07680   0.00000   0.00000   0.00000   0.00000   2.07680
    A8        2.10578  -0.00000   0.00000   0.00000   0.00000   2.10578
    A9        2.10061  -0.00000   0.00000  -0.00000  -0.00000   2.10060
   A10        2.07069   0.00000   0.00000   0.00000   0.00000   2.07069
   A11        2.11452  -0.00000   0.00000  -0.00000  -0.00000   2.11452
   A12        2.09783  -0.00000   0.00000   0.00000   0.00000   2.09783
   A13        2.14512   0.00000   0.00000  -0.00000  -0.00000   2.14512
   A14        2.10679  -0.00000   0.00000  -0.00000  -0.00000   2.10679
   A15        2.03127  -0.00000   0.00000   0.00000   0.00000   2.03127
   A16        2.05577   0.00000   0.00000   0.00000   0.00000   2.05577
   A17        2.04862   0.00000   0.00000  -0.00000  -0.00000   2.04862
   A18        1.93116  -0.00000   0.00000   0.00001   0.00001   1.93117
   A19        1.90769  -0.00000   0.00000  -0.00000  -0.00000   1.90769
   A20        1.81648   0.00000   0.00000  -0.00000  -0.00000   1.81648
   A21        1.91825  -0.00000   0.00000  -0.00000  -0.00000   1.91825
   A22        1.82764   0.00000   0.00000  -0.00000  -0.00000   1.82763
   A23        1.85168   0.00000   0.00000   0.00000   0.00000   1.85168
   A24        1.94164   0.00000   0.00000  -0.00000  -0.00000   1.94164
   A25        1.90448  -0.00000   0.00000  -0.00000  -0.00000   1.90448
   A26        1.94661  -0.00000   0.00000  -0.00001  -0.00001   1.94660
   A27        1.95138   0.00000   0.00000   0.00002   0.00002   1.95139
   A28        1.86883   0.00000   0.00000  -0.00000  -0.00000   1.86883
   A29        1.82314   0.00000   0.00000   0.00001   0.00001   1.82315
   A30        1.96911   0.00000   0.00000   0.00001   0.00001   1.96912
   A31        1.92987  -0.00000   0.00000  -0.00001  -0.00001   1.92986
   A32        1.94466  -0.00000   0.00000  -0.00001  -0.00001   1.94465
   A33        1.91322  -0.00000   0.00000  -0.00000  -0.00000   1.91322
   A34        1.88367   0.00000   0.00000  -0.00000  -0.00000   1.88366
   A35        1.79641  -0.00000   0.00000   0.00001   0.00001   1.79642
   A36        1.96355   0.00000   0.00000  -0.00000  -0.00000   1.96355
   A37        2.00522  -0.00000   0.00000  -0.00001  -0.00001   2.00521
   A38        1.87741  -0.00000   0.00000  -0.00001  -0.00001   1.87740
[...]
 002829,0.00006196,-0.00018450,-0.00001810,-0.00039980,0.00103228,-0.00
 401962,-0.00041336,-0.00107816,0.00175660,0.00002624,-0.00224467,-0.00
 166872,-0.00467720,0.28896948,-0.00173804,-0.00160239,-0.00007757,0.00
 003916,-0.00011988,-0.00056730,-0.00003324,-0.00023945,-0.00026985,-0.
 00031303,-0.00084256,-0.00129213,0.00448192,-0.00038354,0.00069204,-0.
 00369737,-0.01650804,0.00159187,-0.00098676,-0.00051374,0.00034763,0.0
 0002949,0.00013524,-0.00012453,0.00003985,-0.00018780,0.00008412,-0.00
 021113,0.00004641,-0.00014659,0.00025233,0.00065427,-0.00003819,0.0024
 7358,0.00786196,-0.00051831,-0.00000303,0.00000414,0.00002446,0.000068
 77,0.00004423,-0.00000946,-0.00002238,0.00001574,0.00000186,-0.0000663
 6,0.00001170,-0.00017593,0.00006341,0.00000141,-0.00003201,0.00009495,
 0.00002035,-0.00002838,0.00020259,0.00001242,-0.00008310,-0.00067816,-
 0.00020722,-0.00003471,-0.00029276,-0.00026605,0.00024299,0.00018975,-
 0.00029293,-0.00023125,0.00002944,-0.00015667,0.00002767,-0.00005506,0
 .00004860,0.00010442,0.00001411,-0.00123030,0.00002583,0.00221930,-0.0
 0096429,-0.00084210,-0.00250267,-0.01349935,-0.00127279,0.04262103,0.6
 7181180,-0.00049738,-0.00056725,-0.00010040,0.00011234,0.00045972,0.00
 023003,-0.00024620,0.00001045,0.00002686,0.00035917,0.00028162,-0.0001
 7752,-0.00061505,0.00061893,0.00031724,0.00033461,-0.00080740,0.003403
 62,0.00024655,0.00024792,-0.00028143,0.00005231,-0.00002103,-0.0000791
 3,0.00004977,-0.00002283,-0.00002104,-0.00022296,0.00002999,-0.0001057
 8,0.00024668,-0.00072044,0.00003992,0.01167555,-0.00165658,-0.00110250
 ,0.00003498,-0.00002123,0.00003674,0.00000376,-0.00002763,0.00002136,0
 .00001399,0.00002054,-0.00009623,-0.00000970,-0.00005003,0.00003963,-0
 .00001362,-0.00000463,0.00004115,-0.00009041,-0.00000189,0.00004472,-0
 .00005264,-0.00004328,0.00006903,0.00060336,-0.00042129,-0.00066016,0.
 00007921,-0.00001852,0.00005053,-0.00003421,0.00010067,-0.00001469,0.0
 0001538,0.00004925,0.00001368,-0.00000279,-0.00003380,0.00001157,-0.00
 046805,0.00163667,0.00004190,0.00032629,-0.00064915,-0.00024551,-0.004
 10328,-0.00121321,-0.00275488,-0.21197463,0.14375220,0.21814392,0.0005
 6730,0.00462841,0.00189260,-0.00159434,0.00003591,0.00031373,-0.000313
 00,-0.00025360,-0.00023794,0.00000640,-0.00032765,-0.00025630,0.000476
 82,-0.00110387,-0.00004083,-0.00586169,0.00077973,-0.00163859,-0.00002
 848,0.00023226,0.00021192,-0.00000950,-0.00001480,0.00003413,-0.000014
 02,0.00003289,0.00001632,-0.00000750,-0.00001470,0.00000958,-0.0000110
 7,-0.00002832,-0.00001820,-0.00149975,0.00144642,0.00052758,0.00000670
 ,-0.00000758,-0.00000717,0.00000637,-0.00001468,-0.00000864,-0.0000333
 4,-0.00001933,-0.00000683,-0.00000954,0.00005041,-0.00004553,0.0000215
 8,-0.00001725,-0.00002298,-0.00001195,0.00000359,0.00000123,-0.0000410
 0,-0.00000331,-0.00001268,-0.00210032,0.00113886,-0.00068324,-0.000066
 40,-0.00026318,-0.00004532,0.00000330,0.00004029,-0.00005637,-0.000080
 75,-0.00003217,-0.00005305,0.00000626,-0.00000053,0.00003978,-0.000198
 18,0.00011261,0.00011592,0.00013351,-0.00006355,-0.00003314,0.00021887
 ,-0.00423928,0.00001847,-0.15013875,-0.20348491,0.06212033,0.15126304,
 0.00659097,-0.00176321,0.00127319,-0.00142040,0.00009848,0.00120307,-0
 .00002805,0.00030601,0.00018226,0.00025265,0.00115616,0.00183488,-0.00
 612855,-0.00044256,-0.00071114,0.00455883,0.00480827,-0.00404839,0.001
 23816,0.00089258,-0.00034355,-0.00008302,-0.00016798,0.00016793,-0.000
 04384,0.00027119,-0.00008369,0.00012473,-0.00008172,0.00014976,-0.0002
 1947,-0.00109225,0.00003760,0.00538482,-0.00346051,-0.00224459,0.00002
 267,-0.00003140,-0.00002614,-0.00007111,-0.00009144,0.00000900,-0.0000
 3497,-0.00004755,-0.00005188,0.00005286,0.00003856,0.00017377,-0.00006
 155,-0.00001647,0.00002535,-0.00017550,-0.00000566,0.00005636,-0.00027
 214,-0.00003233,0.00010119,-0.00060806,0.00051340,-0.00098929,0.000455
 11,0.00048070,-0.00037508,-0.00025637,0.00050196,0.00028601,-0.0001042
 0,0.00018644,-0.00013957,0.00007350,-0.00009263,-0.00003465,-0.0004777
 3,0.00234469,0.00013705,-0.00039912,-0.00014022,0.00020574,-0.00828940
 ,0.00374486,0.00386090,-0.16394058,-0.33879856,0.04967263,0.18036227,0
 .35188014,0.00097383,-0.00004499,0.00094315,0.00004287,-0.00050233,0.0
 0039031,0.00005304,0.00009116,0.00000692,-0.00057524,-0.00069604,0.000
 45231,0.00084149,-0.00157879,-0.00069134,-0.00122749,0.00064088,-0.005
 98062,0.00007622,-0.00003157,0.00000866,-0.00004409,-0.00001322,0.0000
 4149,-0.00002668,0.00002967,-0.00000537,0.00004772,0.00000609,0.000024
 93,-0.00003498,-0.00004812,-0.00004930,0.00083841,-0.00069143,-0.00031
 035,-0.00000522,-0.00000914,-0.00000962,-0.00000119,-0.00000767,-0.000
 00762,-0.00001579,-0.00001986,0.00000387,-0.00001209,0.00002075,-0.000
 00293,0.00000807,-0.00000772,-0.00001558,-0.00000696,0.00000672,-0.000
 00291,0.00001534,-0.00000129,-0.00001660,-0.00074607,0.00052067,0.0001
 3891,-0.00012529,0.00012923,-0.00021019,0.00004647,-0.00012019,-0.0000
 2605,-0.00000766,0.00001373,-0.00010488,0.00007627,0.00001808,0.000068
 84,0.00008203,0.00009478,0.00009331,-0.00014058,0.00000723,-0.00000352
 ,-0.00118941,0.00177851,0.00032051,0.07386941,0.08290432,-0.04493189,-
 0.05964666,-0.05867971,0.04627815,-0.00041369,0.00029256,-0.00012312,0
 .00001364,0.00006829,-0.00012626,0.00001559,-0.00004460,0.00001010,-0.
 00003921,-0.00002693,-0.00017442,0.00046253,-0.00000723,0.00007894,-0.
 00050676,-0.00188802,0.00054664,-0.00002234,-0.00003574,0.00002985,-0.
 00000699,0.00000498,0.00001761,-0.00001724,0.00004052,0.00001634,0.000
 04113,-0.00000483,0.00002300,-0.00002185,0.00007943,-0.00001979,-0.003
 62380,-0.00073722,0.00087108,-0.00000637,-0.00000208,-0.00001413,0.000
 00028,-0.00000149,-0.00000579,-0.00001119,-0.00000665,0.00001459,0.000
 01063,0.00001922,-0.00000647,0.00000290,-0.00000708,-0.00000952,0.0000
 0844,0.00000224,0.00000125,0.00000739,0.00000439,-0.00001448,0.0000476
 8,0.00007865,0.00026314,-0.00003590,-0.00008491,0.00002770,0.00001629,
 -0.00003311,-0.00002826,0.00000129,-0.00001376,0.00002590,-0.00000239,
 0.00000811,0.00000946,0.00003488,-0.00018873,0.00000402,-0.00058565,0.
 00042232,0.00044103,0.00547630,0.00258248,-0.00060148,-0.11981227,0.16
 121069,0.14211091,0.00929887,-0.01642804,-0.01316474,0.10966042,-0.000
 31825,-0.00017687,-0.00010294,0.00002388,0.00019324,0.00009754,-0.0001
 2362,-0.00005236,-0.00002070,0.00004904,-0.00000215,-0.00013213,0.0001
 3840,-0.00011479,0.00013648,-0.00063509,-0.00141450,0.00051544,0.00007
 072,-0.00002217,0.00002192,0.00001337,-0.00001935,-0.00000539,-0.00000
 654,-0.00000003,-0.00001629,0.00007998,0.00000046,0.00002905,-0.000115
 35,0.00012527,0.00003291,-0.00326171,0.00022884,0.00100157,-0.00000822
 ,0.00000959,-0.00000145,-0.00001256,0.00001223,0.00000266,0.00002942,0
 .00000925,0.00001513,0.00000808,-0.00001583,0.00002384,-0.00001118,0.0
 0000750,0.00000785,0.00001406,-0.00000778,-0.00000593,-0.00000929,0.00
 001211,0.00000627,0.00012677,-0.00005752,-0.00012571,-0.00001041,-0.00
 007219,0.00003628,0.00000433,0.00001992,-0.00003312,-0.00000762,0.0000
 1456,0.00000933,-0.00000541,0.00000279,-0.00005939,0.00013009,-0.00030
 555,-0.00004884,-0.00013573,0.00028636,0.00010240,0.00487018,0.0001024
 2,-0.00125576,0.12338934,-0.30477396,-0.19070858,0.02100756,-0.0211308
 5,-0.02376036,-0.14529425,0.32715310,-0.00008174,0.00028627,-0.0000993
 0,0.00002798,0.00005636,0.00003039,0.00001979,0.00003080,0.00003116,-0
 .00000508,0.00005725,0.00011674,-0.00018228,0.00002775,0.00000732,0.00
 029242,0.00124607,-0.00029219,0.00006478,0.00000938,-0.00000984,-0.000
 01800,-0.00000706,0.00002824,-0.00001277,0.00003366,-0.00000517,0.0000
 3569,-0.00001109,0.00002945,-0.00005045,0.00000108,-0.00002041,-0.0000
 2468,0.00006155,0.00035314,-0.00000335,-0.00000375,-0.00000856,-0.0000
 0864,-0.00000398,-0.00000046,-0.00000482,-0.00000903,0.00001273,0.0000
 1209,0.00001307,0.00001475,-0.00000588,0.00000129,-0.00000194,-0.00000
 605,0.00000248,0.00000275,-0.00001198,-0.00000106,-0.00000268,0.000147
 26,-0.00005348,0.00017514,0.00001376,-0.00000813,-0.00001019,-0.000006
 76,0.00000903,0.00002268,0.00000242,0.00000861,0.00001342,-0.00000126,
 -0.00000138,0.00002069,0.00002744,0.00001390,0.00000137,0.00017917,-0.
 00015553,0.00013186,-0.00042542,-0.00014668,-0.00152332,0.13272739,-0.
 22421526,-0.17202478,-0.00249919,0.00848956,0.00363802,-0.13020606,0.2
 1427066,0.16937565,0.00019883,-0.00021393,-0.00009060,0.00017090,-0.00
 002482,-0.00002339,0.00001229,0.00010524,0.00007959,0.00010016,-0.0000
 1067,0.00003454,0.00002985,0.00001315,0.00002334,-0.00011853,0.0001016
 9,-0.00001274,-0.00037368,-0.00037218,-0.00080244,0.00015874,0.0000679
 0,-0.00043730,0.00004276,0.00006296,-0.00000268,0.00084849,0.00079909,
 -0.00038370,0.00087150,0.00632994,-0.00496371,0.00004573,-0.00004084,-
 0.00065085,-0.00000988,0.00012454,0.00009508,-0.00000497,0.00000037,0.
 00000089,-0.00001579,-0.00000451,0.00004334,-0.00004058,-0.00000025,-0
 .00011471,0.00001280,0.00002474,-0.00003029,0.00009254,-0.00022532,-0.
 00023700,-0.00008270,-0.00021052,-0.00003042,0.00000747,0.00000009,0.0
 0003017,-0.00000410,0.00000454,0.00000134,-0.00000373,0.00000248,0.000
 00184,-0.00002213,0.00008064,-0.00002234,-0.08312585,-0.08092471,0.049
 63512,0.00009036,-0.00045631,0.00081780,0.00011967,0.00020409,0.000251
 38,-0.00027178,-0.00001731,0.00013708,0.00011030,0.00008487,-0.0000858
 1,-0.00000719,-0.00014789,0.00000807,0.00001031,0.00000723,0.00000849,
 0.08240957,-0.00001288,-0.00002754,-0.00002758,-0.00000667,0.00011906,
 -0.00002750,-0.00000229,-0.00008729,-0.00004580,0.00003878,0.00002857,
 -0.00000005,0.00002314,-0.00000616,0.00002084,-0.00003992,0.00002816,0
 .00001281,-0.00028622,-0.00053740,-0.00123939,-0.00018875,0.00053527,-
 0.00035121,0.00023024,0.00007090,0.00020383,0.00025745,0.00042177,-0.0
 0023068,0.00324055,0.00710461,-0.00636880,-0.00020978,0.00000435,0.000
 12452,-0.00008325,-0.00025660,0.00007881,0.00000618,0.00000193,-0.0000
 0411,0.00000705,-0.00000802,-0.00002547,0.00006507,0.00007612,-0.00001
 463,-0.00002315,0.00000793,-0.00015586,0.00015183,0.00016154,0.0001819
 1,-0.00013001,0.00056506,-0.00004640,-0.00001190,0.00000734,0.00000390
 ,-0.00000508,0.00000642,0.00000045,0.00000578,-0.00000329,0.00000661,0
 .00005204,0.00008022,-0.00000955,-0.08025463,-0.23573404,0.11252423,0.
 00026288,0.00052891,0.00032195,0.00004135,-0.00004035,-0.00012332,0.00
 010797,0.00002546,-0.00001658,-0.00004376,0.00001088,0.00002806,-0.000
 00151,-0.00000254,-0.00000117,-0.00000190,-0.00000569,-0.00000434,0.08
 606298,0.24437312,0.00013024,-0.00005573,0.00003548,-0.00048226,0.0001
 3900,0.00012576,0.00005700,-0.00020108,0.00000813,0.00012981,-0.000010
 19,0.00005654,0.00005789,0.00006212,0.00001124,-0.00002505,-0.00005244
 ,0.00001443,-0.00270773,-0.00408342,-0.00370603,0.00057399,0.00139981,
 -0.00071086,0.00036304,0.00000469,-0.00005337,0.00146642,0.00103335,0.
 00123405,0.01291083,0.02975153,-0.02482380,-0.00037341,-0.00016773,0.0
 0051981,-0.00027263,-0.00007101,-0.00004026,-0.00004466,-0.00006720,0.
 00006174,-0.00003801,-0.00003010,0.00001514,-0.00016582,0.00000972,-0.
 00025167,-0.00015453,-0.00007613,-0.00043374,-0.00052096,-0.00041069,-
 0.00018169,-0.00013460,0.00003797,0.00007831,-0.00001255,0.00004786,-0
 .00001181,-0.00000357,0.00000973,0.00000054,0.00002154,-0.00000269,-0.
 00000584,-0.00001126,0.00008845,-0.00004956,0.04383073,0.10139124,-0.1
 1079468,0.00018637,0.00144121,0.00024907,0.00011771,-0.00030861,-0.000
 20259,0.00029404,-0.00000974,-0.00007541,-0.00013489,-0.00003022,0.000
 06565,0.00000362,0.00007646,-0.00000371,-0.00000659,-0.00001048,-0.000
 00075,-0.04947944,-0.11685194,0.12904520,0.00030783,-0.00015287,-0.000
 04584,0.00026674,-0.00002160,0.00085590,-0.00027783,-0.00031021,0.0002
 7412,0.00007390,-0.00007888,0.00000837,-0.00003745,0.00014978,0.000052
 32,-0.00020140,-0.00000233,-0.00007868,-0.00022242,-0.00047144,0.00042
 330,-0.00017335,0.00001642,-0.00005021,-0.00005026,-0.00010699,0.00022
 173,0.00116803,0.00005524,-0.00019905,-0.00163142,-0.00015913,-0.00103
 823,0.00005423,-0.00006675,0.00019879,0.00026608,-0.00015728,0.0000688
 3,0.00001755,-0.00000478,-0.00004495,0.00002050,0.00001964,-0.00007364
 ,0.00005699,0.00002620,0.00001040,0.00000900,0.00000746,0.00001080,-0.
 00000337,0.00001437,0.00010386,-0.00010121,0.00013077,-0.00005325,-0.0
 0001305,-0.00001658,0.00000681,-0.00000522,0.00000536,0.00000475,0.000
 00118,-0.00000769,-0.00000339,0.00001719,0.00011817,-0.00001635,-0.321
 91157,-0.02819358,-0.04652028,-0.00002893,0.00018135,-0.00045272,-0.00
 004753,-0.00004605,-0.00006804,0.00007557,-0.00002137,-0.00003377,-0.0
 0003003,-0.00001119,-0.00000698,0.00000847,0.00002041,0.00001426,-0.00
 000263,-0.00000174,-0.00000462,-0.00727093,0.00111029,-0.00141062,0.34
 038091,-0.00024197,0.00015497,0.00013786,0.00007362,-0.00004382,0.0003
 7588,-0.00011799,0.00006912,0.00022509,-0.00017617,-0.00004318,-0.0000
 9777,-0.00000371,-0.00003693,-0.00004342,0.00030693,-0.00018497,0.0000
 0151,0.00041678,0.00025626,0.00042518,-0.00000469,-0.00010684,-0.00004
 611,-0.00047098,0.00050257,0.00001691,0.00070957,0.00014049,-0.0009346
 2,-0.00566620,-0.00224619,-0.00168970,0.00024005,0.00016104,0.00051055
 ,-0.00038769,0.00015516,0.00001058,0.00003650,0.00001297,-0.00016007,-
 0.00001210,-0.00005005,0.00011005,-0.00001184,0.00000972,-0.00000196,0
 .00000216,0.00000388,-0.00001412,0.00031346,0.00021794,0.00020684,0.00
 020950,-0.00007153,-0.00019254,-0.00000295,-0.00002100,-0.00005568,0.0
 0001195,-0.00001519,-0.00001064,-0.00001011,0.00000048,0.00000104,0.00
 002379,-0.00025763,0.00008768,-0.02646930,-0.05197165,-0.00539162,-0.0
 0097433,0.00016673,-0.00020434,-0.00013982,-0.00007979,-0.00006298,0.0
 0016828,-0.00005609,-0.00023772,-0.00010186,-0.00009510,0.00012284,0.0
 0002324,0.00020083,-0.00005388,-0.00000936,-0.00001464,-0.00000315,-0.
 02450265,-0.00102796,-0.00535116,0.03146798,0.04958964,0.00019113,-0.0
 0043141,-0.00013812,-0.00007863,0.00021870,-0.00062095,0.00051352,0.00
 039363,-0.00004391,0.00003745,0.00009696,0.00004597,0.00004262,0.00002
 198,-0.00000869,-0.00012777,0.00006375,0.00002041,-0.00113768,-0.00060
 685,0.00128979,-0.00017116,-0.00026440,0.00015133,-0.00222566,-0.00009
 072,-0.00036456,0.00325729,-0.00026042,-0.00552879,-0.03994336,-0.0048
 9281,-0.01206862,0.00028641,-0.00005948,0.00000983,0.00004778,0.000208
 69,-0.00002587,0.00014702,0.00000629,-0.00065759,0.00000518,-0.0000119
 3,-0.00003902,0.00005512,0.00003786,-0.00001877,0.00004173,0.00002161,
 0.00003003,-0.00013980,-0.00021075,-0.00008480,0.00011255,0.00020932,-
 0.00006979,-0.00002216,0.00004329,0.00004400,-0.00001060,0.00000233,0.
 00000976,-0.00001849,-0.00001610,0.00001743,0.00001726,0.00000869,0.00
 002186,-0.03365351,-0.00408131,-0.05504726,-0.00077398,0.00059514,0.00
 098532,0.00002053,-0.00003719,-0.00000401,-0.00009206,-0.00012935,-0.0
 0000615,0.00003278,0.00016166,-0.00000614,0.00001146,-0.00017996,-0.00
 001897,0.00000601,-0.00002089,-0.00000239,0.01519302,0.00007115,0.0038
 4699,0.04969550,0.00681264,0.06609434,0.00005851,-0.00003160,0.0000656
 2,-0.00016026,-0.00010602,0.00006946,0.00003461,0.00034299,0.00011112,
 0.00001988,-0.00006233,-0.00006228,0.00002775,0.00003088,-0.00000428,0
 .00007919,-0.00009618,-0.00005298,-0.00027760,0.00047534,0.00018945,0.
 00005978,-0.00016761,0.00002194,-0.00003055,0.00003113,-0.00015741,0.0
 0156824,-0.00149833,-0.00057664,0.00225049,-0.00632013,-0.00333469,0.0
 0010266,-0.00000123,0.00017288,-0.00001559,0.00027321,-0.00015495,-0.0
 0002324,0.00001517,0.00001800,-0.00006688,0.00002649,0.00002231,-0.000
 07561,-0.00006032,-0.00005102,0.00000615,-0.00001275,0.00001999,-0.000
 08687,-0.00000328,-0.00002200,0.00008586,-0.00032177,0.00048016,-0.000
 00937,-0.00001422,-0.00000350,0.00000628,-0.00001409,-0.00000137,-0.00
 000944,0.00000552,0.00000356,-0.00002233,-0.00016924,0.00004852,-0.119
 67963,0.11662107,0.04010369,0.00006053,-0.00032870,-0.00140750,-0.0000
 1455,-0.00001628,0.00001173,0.00002755,-0.00004906,-0.00010159,-0.0000
 2399,-0.00001915,0.00003851,0.00000926,0.00005298,-0.00002335,-0.00000
 032,-0.00000551,0.00000036,0.00601955,-0.01036187,-0.00416465,-0.01071
 558,0.02529989,0.00868050,0.12079552,-0.00007640,-0.00000920,0.0000204
 2,0.00001794,-0.00015385,-0.00000445,0.00003646,0.00000162,-0.00001998
 ,0.00000209,0.00000486,-0.00002185,-0.00001282,-0.00001622,0.00000709,
 0.00004306,0.00002959,-0.00002699,-0.00053304,0.00126187,0.00130564,-0
 .00008898,0.00015976,0.00012900,-0.00022871,0.00027289,0.00002604,0.00
 052825,-0.00016495,0.00044824,0.00139812,-0.00409316,-0.00176274,0.000
 11856,-0.00021187,-0.00023790,-0.00063187,0.00009899,-0.00042895,0.000
 00198,0.00000934,-0.00007588,-0.00004980,-0.00003512,0.00018227,0.0000
 1049,0.00000368,0.00004295,0.00000003,-0.00001165,-0.00005112,0.000041
 28,-0.00003987,-0.00002313,0.00018069,0.00036664,-0.00010885,0.0000170
 2,0.00000073,0.00000891,0.00000144,-0.00000249,0.00000196,-0.00000441,
 0.00000405,-0.00000113,-0.00000359,-0.00000190,0.00000598,0.11392477,-
 0.23745282,-0.06469193,-0.00069744,0.00139356,-0.00012139,0.00003978,0
 .00012546,0.00010881,-0.00017908,0.00000600,0.00007551,0.00007898,0.00
 000267,-0.00004270,-0.00000425,-0.00002640,0.00000566,0.00000205,0.000
 00858,0.00000514,0.01307539,-0.01642077,-0.00770257,-0.00349297,0.0046
 8076,0.00231989,-0.12351501,0.25020922,-0.00006678,-0.00015758,-0.0001
 1321,-0.00002453,0.00032119,0.00007481,-0.00002345,-0.00010493,0.00004
 088,0.00004916,0.00001598,0.00001358,0.00003035,0.00003088,0.00001526,
 -0.00004434,0.00007633,0.00003903,0.00004407,-0.00329923,0.00138733,-0
 .00020243,0.00025155,0.00034829,-0.00014401,0.00022361,0.00018523,0.00
 264903,-0.00045231,0.00116055,0.01834069,-0.03303558,-0.02008956,0.000
 35796,-0.00091185,0.00036206,-0.00092895,0.00033173,0.00007801,-0.0000
 0072,0.00007633,-0.00002718,-0.00001286,0.00007550,0.00015974,0.000049
 42,0.00004190,0.00014219,-0.00004269,0.00001090,-0.00006333,-0.0002573
 9,0.00009019,-0.00003295,0.00005717,0.00119452,-0.00029390,-0.00002250
 ,0.00003791,0.00006969,-0.00000165,0.00000839,0.00000291,-0.00000136,0
 .00000098,0.00000299,0.00003734,0.00005999,-0.00000552,0.03335964,-0.0
 5496057,-0.06767435,-0.00254405,0.00233383,-0.00575151,0.00015172,-0.0
 0022218,-0.00018262,-0.00008353,-0.00012983,0.00005429,0.00005747,0.00
 002861,0.00000454,-0.00000401,-0.00003509,-0.00001792,0.00000355,-0.00
 000137,-0.00000351,-0.00899367,0.01196532,0.00597768,-0.00184911,0.005
 50684,0.00218736,-0.03993956,0.07062804,0.08194915\\0.00000092,-0.0000
 0033,0.00000061,0.,0.00000050,0.00000083,-0.00000025,-0.00000034,0.000
 00174,0.00000007,-0.00000028,0.00000247,-0.00000007,0.00000004,0.00000
 247,0.00000068,0.00000002,0.00000156,-0.00000045,-0.00000010,-0.000000
 84,0.00000322,0.00000048,-0.00000027,-0.00000170,0.00000155,-0.0000021
 9,-0.00000114,-0.00000159,-0.00000157,0.00000043,0.00000057,0.00000039
 ,0.00000025,-0.00000005,0.00000035,0.00000014,0.,-0.00000216,0.0000007
 3,0.00000008,-0.00000183,0.00000151,0.00000079,-0.00000137,0.00000116,
 0.00000085,-0.00000010,0.00000151,0.00000098,-0.00000023,-0.00000075,-
 0.00000014,-0.00000292,-0.00000007,-0.00000007,-0.00000001,0.00000113,
 -0.00000012,0.00000049,0.00000024,-0.00000012,0.00000297,-0.00000035,-
 0.00000049,0.00000314,-0.00000037,-0.00000039,0.00000171,-0.00000087,-
 0.00000071,-0.00000058,-0.00000137,0.00000017,-0.00000115,-0.00000012,
 -0.00000035,-0.00000207,-0.00000085,-0.00000003,-0.00000104,-0.0000001
 9,0.00000164,0.00000050,-0.00000032,-0.00000116,0.00000042,0.00000121,
 0.00000112,0.00000028,-0.00000153,-0.00000089,-0.00000115,-0.00000137,
 -0.00000081,0.00000011,-0.00000142,-0.00000083,-0.00000054\\\@


 MOM AND DAD WENT TO ALPHA CENTAURI AND ALL
 I GOT WAS THIS DUMB T-SHIRT.
 Job cpu time:       0 days 18 hours 55 minutes 51.0 seconds.
 Elapsed time:       0 days  0 hours 40 minutes 36.4 seconds.
 File lengths (MBytes):  RWF=    904 Int=      0 D2E=      0 Chk=     28 Scr=      8
 Normal termination of Gaussian 16 at Tue Jul 21 10:17:36 2020.
