 Entering Gaussian System, Link 0=g16
 Input=NicPyrNs2h2wB97XDaVDZ130K.gjf
 Output=NicPyrNs2h2wB97XDaVDZ130K.log
 Initial command:
 /sw/contrib/gaussian/g16/A03/g16/l1.exe "/gscratch/scrubbed/gds001/Gau-21701.inp" -scrdir="/gscratch/scrubbed/gds001/"
 Entering Link 1 = /sw/contrib/gaussian/g16/A03/g16/l1.exe PID=     21702.
  
 Copyright (c) 1988,1990,1992,1993,1995,1998,2003,2009,2016,
            Gaussian, Inc.  All Rights Reserved.
  
 This is part of the Gaussian(R) 16 program.  It is based on
 the Gaussian(R) 09 system (copyright 2009, Gaussian, Inc.),
 the Gaussian(R) 03 system (copyright 2003, Gaussian, Inc.),
 the Gaussian(R) 98 system (copyright 1998, Gaussian, Inc.),
 the Gaussian(R) 94 system (copyright 1995, Gaussian, Inc.),
 the Gaussian 92(TM) system (copyright 1992, Gaussian, Inc.),
 the Gaussian 90(TM) system (copyright 1990, Gaussian, Inc.),
 the Gaussian 88(TM) system (copyright 1988, Gaussian, Inc.),
 the Gaussian 86(TM) system (copyright 1986, Carnegie Mellon
 University), and the Gaussian 82(TM) system (copyright 1983,
 Carnegie Mellon University). Gaussian is a federally registered
 trademark of Gaussian, Inc.
  
 This software contains proprietary and confidential information,
 including trade secrets, belonging to Gaussian, Inc.
  
 This software is provided under written license and may be
 used, copied, transmitted, or stored only in accord with that
 written license.
  
 The following legend is applicable only to US Government
 contracts under FAR:
  
                    RESTRICTED RIGHTS LEGEND
  
 Use, reproduction and disclosure by the US Government is
 subject to restrictions as set forth in subparagraphs (a)
 and (c) of the Commercial Computer Software - Restricted
 Rights clause in FAR 52.227-19.
  
 Gaussian, Inc.
 340 Quinnipiac St., Bldg. 40, Wallingford CT 06492
  
  
 ---------------------------------------------------------------
 Warning -- This program may not be used in any manner that
 competes with the business of Gaussian, Inc. or will provide
 assistance to any competitor of Gaussian, Inc.  The licensee
 of this program is prohibited from giving any competitor of
 Gaussian, Inc. access to this program.  By using this program,
 the user acknowledges that Gaussian, Inc. is engaged in the
 business of creating and licensing software in the field of
 computational chemistry and represents and warrants to the
 licensee that it is not a competitor of Gaussian, Inc. and that
 it will not use this program in any manner prohibited above.
 ---------------------------------------------------------------
  

 Cite this work as:
 Gaussian 16, Revision A.03,
 M. J. Frisch, G. W. Trucks, H. B. Schlegel, G. E. Scuseria, 
 M. A. Robb, J. R. Cheeseman, G. Scalmani, V. Barone, 
 G. A. Petersson, H. Nakatsuji, X. Li, M. Caricato, A. V. Marenich, 
 J. Bloino, B. G. Janesko, R. Gomperts, B. Mennucci, H. P. Hratchian, 
 J. V. Ortiz, A. F. Izmaylov, J. L. Sonnenberg, D. Williams-Young, 
 F. Ding, F. Lipparini, F. Egidi, J. Goings, B. Peng, A. Petrone, 
 T. Henderson, D. Ranasinghe, V. G. Zakrzewski, J. Gao, N. Rega, 
 G. Zheng, W. Liang, M. Hada, M. Ehara, K. Toyota, R. Fukuda, 
 J. Hasegawa, M. Ishida, T. Nakajima, Y. Honda, O. Kitao, H. Nakai, 
 T. Vreven, K. Throssell, J. A. Montgomery, Jr., J. E. Peralta, 
 F. Ogliaro, M. J. Bearpark, J. J. Heyd, E. N. Brothers, K. N. Kudin, 
 V. N. Staroverov, T. A. Keith, R. Kobayashi, J. Normand, 
 K. Raghavachari, A. P. Rendell, J. C. Burant, S. S. Iyengar, 
 J. Tomasi, M. Cossi, J. M. Millam, M. Klene, C. Adamo, R. Cammi, 
 J. W. Ochterski, R. L. Martin, K. Morokuma, O. Farkas, 
 J. B. Foresman, and D. J. Fox, Gaussian, Inc., Wallingford CT, 2016.
 
 ******************************************
 Gaussian 16:  ES64L-G16RevA.03 25-Dec-2016
                26-Aug-2020 
 ******************************************
 %nprocshared=28
 Will use up to   28 processors via shared memory.
 %mem=41GB
 %chk=NicPyrNs2h2.chk
 -----------------------------------------
 # wB97XD/aug-cc-pVDZ Temperature=130 Freq
 -----------------------------------------
 1/10=4,30=1,38=1,112=130000/1,3;
 2/12=2,17=6,18=5,40=1/2;
 3/5=16,7=10,11=2,25=1,30=1,71=2,74=-58,140=1/1,2,3;
 4//1;
 5/5=2,38=5,98=1/2;
 8/6=4,10=90,11=11/1;
 11/6=1,8=1,9=11,15=111,16=1/1,2,10;
 10/6=1/2;
 6/7=2,8=2,9=2,10=2,28=1/1;
 7/8=1,10=1,25=1/1,2,3,16;
 1/10=4,30=1/3;
 99//99;
 ---------------------------
 p-Pyr Nicotine, N syn, 2H2O
 ---------------------------
 Symbolic Z-matrix:
 Charge =  1 Multiplicity = 1
 C                     1.29759  -0.01372   0.60661 
 C                     0.35633  -1.00227   0.32355 
 C                     0.8396   -2.22249  -0.15474 
 C                     2.20771  -2.38375  -0.34307 
 C                     3.0536   -1.30988  -0.07463 
 N                     2.60703  -0.1406    0.39045 
 C                    -1.1211   -0.76427   0.54886 
 C                    -2.07984  -1.637    -0.26867 
 C                    -3.33455  -0.77612  -0.3991 
 C                    -2.74521   0.59813  -0.67576 
 N                    -1.52868   0.67394   0.21523 
 O                     0.15238   2.34318  -1.12377 
 H                    -3.40292   1.44394  -0.45824 
 H                    -3.91375  -0.77429   0.53394 
 H                    -3.99678  -1.10226  -1.20664 
 H                    -1.65673  -1.83844  -1.26202 
 H                    -2.26183  -2.59547   0.22735 
 H                    -2.39201   0.67702  -1.71024 
 H                    -1.35181  -0.88588   1.61543 
 H                     0.99745   0.95546   1.00819 
 H                     4.12808  -1.38946  -0.24079 
 H                     2.61484  -3.32359  -0.71069 
 H                     0.16411  -3.04657  -0.38158 
 C                    -1.77412   1.49853   1.42748 
 H                    -0.78323   1.16618  -0.3296 
 H                     1.0752    2.52564  -0.8334 
 H                     0.0501    2.75124  -1.98596 
 O                     2.61417   2.61697  -0.07136 
 H                     3.01758   1.74827   0.11384 
 H                     3.32321   3.25754  -0.15457 
 H                    -0.90409   1.43917   2.08758 
 H                    -2.65909   1.11832   1.94819 
 H                    -1.9291    2.53572   1.1174 
 

 GradGradGradGradGradGradGradGradGradGradGradGradGradGradGradGradGradGrad
 Berny optimization.
 Initialization pass.
 Trust Radius=3.00D-01 FncErr=1.00D-07 GrdErr=1.00D-07 EigMax=2.50D+02 EigMin=1.00D-04
 Number of steps in this run=      2 maximum allowed number of steps=      2.
 GradGradGradGradGradGradGradGradGradGradGradGradGradGradGradGradGradGrad

                          Input orientation:                          
 ---------------------------------------------------------------------
 Center     Atomic      Atomic             Coordinates (Angstroms)
 Number     Number       Type             X           Y           Z
 ---------------------------------------------------------------------
      1          6           0        1.297585   -0.013721    0.606607
      2          6           0        0.356325   -1.002270    0.323547
      3          6           0        0.839597   -2.222493   -0.154742
      4          6           0        2.207708   -2.383746   -0.343074
      5          6           0        3.053598   -1.309881   -0.074627
      6          7           0        2.607030   -0.140602    0.390446
      7          6           0       -1.121104   -0.764270    0.548863
      8          6           0       -2.079838   -1.637001   -0.268670
      9          6           0       -3.334550   -0.776123   -0.399099
     10          6           0       -2.745212    0.598125   -0.675755
     11          7           0       -1.528682    0.673935    0.215226
     12          8           0        0.152377    2.343183   -1.123772
     13          1           0       -3.402916    1.443935   -0.458237
     14          1           0       -3.913745   -0.774289    0.533944
     15          1           0       -3.996776   -1.102257   -1.206641
     16          1           0       -1.656734   -1.838438   -1.262015
     17          1           0       -2.261829   -2.595473    0.227347
     18          1           0       -2.392010    0.677021   -1.710239
     19          1           0       -1.351810   -0.885883    1.615428
     20          1           0        0.997452    0.955460    1.008186
     21          1           0        4.128080   -1.389457   -0.240788
     22          1           0        2.614840   -3.323589   -0.710685
     23          1           0        0.164111   -3.046569   -0.381578
     24          6           0       -1.774121    1.498529    1.427480
     25          1           0       -0.783226    1.166184   -0.329602
     26          1           0        1.075197    2.525644   -0.833402
     27          1           0        0.050097    2.751240   -1.985957
     28          8           0        2.614173    2.616971   -0.071363
     29          1           0        3.017582    1.748273    0.113844
     30          1           0        3.323210    3.257535   -0.154572
     31          1           0       -0.904088    1.439172    2.087581
     32          1           0       -2.659093    1.118324    1.948194
     33          1           0       -1.929097    2.535715    1.117399
 ---------------------------------------------------------------------
                    Distance matrix (angstroms):
                    1          2          3          4          5
     1  C    0.000000
     2  C    1.394031   0.000000
     3  C    2.380773   1.396874   0.000000
     4  C    2.710579   2.404263   1.390395   0.000000
     5  C    2.286415   2.743802   2.396055   1.393119   0.000000
     6  N    1.333218   2.410938   2.784837   2.393576   1.335264
     7  C    2.533123   1.513343   2.542798   3.807787   4.256121
     8  C    3.848134   2.586212   2.979745   4.352725   5.147507
     9  C    4.800977   3.767747   4.424387   5.770980   6.418615
    10  C    4.285209   3.630344   4.591100   5.790824   6.134170
    11  N    2.934934   2.524807   3.759643   4.860218   5.001683
    12  O    3.140177   3.650806   4.717699   5.213227   4.781492
    13  H    5.035212   4.552691   5.615489   6.792901   7.029739
    14  H    5.267039   4.281325   5.016557   6.389969   7.014349
    15  H    5.701144   4.615296   5.074635   6.394027   7.143692
    16  H    3.943265   2.695476   2.757756   4.009454   4.886358
    17  H    4.413469   3.066314   3.147054   4.510762   5.477016
    18  H    4.411124   3.809153   4.611945   5.691647   6.023093
    19  H    2.966088   2.144814   3.118059   4.330068   4.737476
    20  H    1.091172   2.170825   3.387729   3.800121   3.245303
    21  H    3.259207   3.833344   3.393446   2.164925   1.090162
    22  H    3.798111   3.399860   2.161706   1.088209   2.156872
    23  H    3.385179   2.171015   1.089421   2.148745   3.385179
    24  C    3.520811   3.465756   4.814660   5.836256   5.783629
    25  H    2.568742   2.535226   3.761285   4.641968   4.573525
    26  H    2.927705   3.781730   4.802176   5.062125   4.381902
    27  H    3.990316   4.417739   5.358608   5.807102   5.400639
    28  O    3.018872   4.284009   5.155238   5.024561   3.951363
    29  H    2.511141   3.832982   4.536820   4.235357   3.064168
    30  H    3.922202   5.213151   6.016564   5.753601   4.576065
    31  H    3.025152   3.265133   4.634246   5.496004   5.281639
    32  H    4.328589   4.028541   5.274868   6.418735   6.528616
    33  H    4.143912   4.286105   5.650182   6.591452   6.405996
                    6          7          8          9         10
     6  N    0.000000
     7  C    3.783258   0.000000
     8  C    4.963907   1.532707   0.000000
     9  C    6.027407   2.407928   1.527228   0.000000
    10  C    5.507177   2.448170   2.367325   1.520663   0.000000
    11  N    4.218802   1.531622   2.424532   2.396085   1.509814
    12  O    3.806227   3.751763   4.642828   4.734330   3.412033
    13  H    6.272995   3.331229   3.358368   2.221898   1.093290
    14  H    6.553065   2.792699   2.179834   1.098198   2.170797
    15  H    6.861904   3.386077   2.200089   1.094089   2.177051
    16  H    4.877803   2.172560   1.098330   2.165226   2.732275
    17  H    5.455161   2.181268   1.094451   2.202998   3.353852
    18  H    5.483775   2.965816   2.744134   2.172348   1.095962
    19  H    4.210515   1.097987   2.155001   2.828714   3.064860
    20  H    2.042963   2.767079   4.221484   4.872892   4.119573
    21  H    2.066806   5.344936   6.212914   7.489465   7.168111
    22  H    3.368079   4.700410   5.007989   6.479345   6.641628
    23  H    3.874083   2.779638   2.652346   4.170835   4.672740
    24  C    4.791312   2.513694   3.577979   3.308379   2.485426
    25  H    3.704051   2.147677   3.089136   3.207279   2.071691
    26  H    3.309559   4.190218   5.253645   5.525953   4.282021
    27  H    4.532984   4.489525   5.171301   5.139673   3.763813
    28  O    2.795984   5.076393   6.337898   6.856224   5.758822
    29  H    1.952668   4.861156   6.131076   6.854580   5.929258
    30  H    3.515294   6.035036   7.291257   7.788194   6.646039
    31  H    4.207601   2.696276   4.049339   4.122894   3.425365
    32  H    5.634139   2.804942   3.583551   3.091109   2.676403
    33  H    5.316727   3.444704   4.399485   3.904271   2.763277
                   11         12         13         14         15
    11  N    0.000000
    12  O    2.721261   0.000000
    13  H    2.135230   3.727156   0.000000
    14  H    2.808462   5.385165   2.483120   0.000000
    15  H    3.356792   5.393829   2.719535   1.773159   0.000000
    16  H    2.917303   4.558283   3.803838   3.074407   2.453737
    17  H    3.350624   5.660763   4.253107   2.477809   2.701121
    18  H    2.110156   3.097409   1.782582   3.075441   2.448411
    19  H    2.103540   4.493625   3.732985   2.783087   3.873853
    20  H    2.662592   2.680517   4.663930   5.228460   5.837977
    21  H    6.038584   5.524353   8.049304   8.102443   8.187102
    22  H    5.831491   6.192469   7.681562   7.118318   6.992407
    23  H    4.130844   5.440626   5.735345   4.757136   4.666268
    24  C    1.486525   3.306618   2.492365   3.246860   4.317740
    25  H    1.046351   1.700407   2.637512   3.783027   4.030127
    26  H    3.362831   0.984481   4.622157   6.135857   6.247070
    27  H    3.413641   0.959341   3.995782   5.872929   5.642159
    28  O    4.584841   2.691276   6.142560   7.381108   7.669821
    29  H    4.672579   3.177265   6.453115   7.388037   7.685728
    30  H    5.509319   3.439414   6.972957   8.312832   8.584686
    31  H    2.116936   3.499449   3.567261   4.046138   5.184157
    32  H    2.116244   4.340693   2.539725   2.675115   4.083303
    33  H    2.107243   3.064710   2.418006   3.903252   4.786575
                   16         17         18         19         20
    16  H    0.000000
    17  H    1.776919   0.000000
    18  H    2.658772   3.805313   0.000000
    19  H    3.046312   2.382772   3.818998   0.000000
    20  H    4.472626   4.882801   4.353828   3.046033   0.000000
    21  H    5.891397   6.519552   6.995798   5.807609   4.106020
    22  H    4.555873   5.019159   6.486335   5.204568   4.886791
    23  H    2.355892   2.541547   4.707889   3.309775   4.317654
    24  C    4.287483   4.294069   3.301809   2.428805   2.855232
    25  H    3.264991   4.080015   2.175690   2.883992   2.237162
    26  H    5.166466   6.203771   4.025888   4.850325   2.421357
    27  H    4.950001   6.231457   3.215943   5.306975   3.617623
    28  O    6.285616   7.143822   5.613483   5.553762   2.557309
    29  H    6.050348   6.837631   5.808489   5.318376   2.347195
    30  H    7.210771   8.099150   6.460874   6.492813   3.472853
    31  H    4.746472   4.645674   4.149485   2.414387   2.239403
    32  H    4.478014   4.112350   3.694620   2.415899   3.778950
    33  H    4.986884   5.218428   3.415343   3.505514   3.327735
                   21         22         23         24         25
    21  H    0.000000
    22  H    2.500313   0.000000
    23  H    4.298708   2.488197   0.000000
    24  C    6.779348   6.862037   5.261877   0.000000
    25  H    5.537158   5.643593   4.318268   2.044422   0.000000
    26  H    4.999930   6.049718   5.664255   3.779572   2.357049
    27  H    6.068025   6.716232   6.016778   4.067998   2.439332
    28  O    4.286267   5.974863   6.178570   4.770175   3.703214
    29  H    3.347285   5.154205   5.601629   4.974779   3.870609
    30  H    4.716968   6.642458   7.055010   5.619588   4.611638
    31  H    6.224561   6.549583   5.230647   1.093716   2.435550
    32  H    7.559519   7.390169   5.544786   1.094931   2.951190
    33  H    7.344456   7.636799   6.147385   1.093582   2.298358
                   26         27         28         29         30
    26  H    0.000000
    27  H    1.558880   0.000000
    28  O    1.719736   3.202840   0.000000
    29  H    2.296615   3.771084   0.975539   0.000000
    30  H    2.459682   3.784650   0.959156   1.563115   0.000000
    31  H    3.691901   4.384712   4.292599   4.401213   5.118959
    32  H    4.864437   5.048135   5.842250   5.998859   6.692219
    33  H    3.582109   3.687069   4.696920   5.108505   5.452125
                   31         32         33
    31  H    0.000000
    32  H    1.789529   0.000000
    33  H    1.787261   1.797807   0.000000
 Stoichiometry    C10H19N2O2(1+)
 Framework group  C1[X(C10H19N2O2)]
 Deg. of freedom    93
 Full point group                 C1      NOp   1
 Largest Abelian subgroup         C1      NOp   1
 Largest concise Abelian subgroup C1      NOp   1
                         Standard orientation:                         
 ---------------------------------------------------------------------
 Center     Atomic      Atomic             Coordinates (Angstroms)
 Number     Number       Type             X           Y           Z
 ---------------------------------------------------------------------
      1          6           0        1.297585   -0.013721    0.606607
      2          6           0        0.356325   -1.002270    0.323547
      3          6           0        0.839597   -2.222493   -0.154742
      4          6           0        2.207708   -2.383746   -0.343074
      5          6           0        3.053598   -1.309880   -0.074627
      6          7           0        2.607030   -0.140601    0.390446
      7          6           0       -1.121104   -0.764270    0.548863
      8          6           0       -2.079838   -1.637001   -0.268670
      9          6           0       -3.334550   -0.776124   -0.399099
     10          6           0       -2.745212    0.598124   -0.675755
     11          7           0       -1.528682    0.673935    0.215226
     12          8           0        0.152376    2.343183   -1.123772
     13          1           0       -3.402916    1.443934   -0.458237
     14          1           0       -3.913745   -0.774290    0.533944
     15          1           0       -3.996776   -1.102258   -1.206641
     16          1           0       -1.656734   -1.838438   -1.262015
     17          1           0       -2.261829   -2.595474    0.227347
     18          1           0       -2.392010    0.677020   -1.710239
     19          1           0       -1.351810   -0.885883    1.615428
     20          1           0        0.997452    0.955460    1.008186
     21          1           0        4.128080   -1.389456   -0.240788
     22          1           0        2.614841   -3.323588   -0.710685
     23          1           0        0.164112   -3.046569   -0.381578
     24          6           0       -1.774121    1.498529    1.427480
     25          1           0       -0.783226    1.166184   -0.329602
     26          1           0        1.075196    2.525644   -0.833402
     27          1           0        0.050096    2.751240   -1.985957
     28          8           0        2.614172    2.616972   -0.071363
     29          1           0        3.017582    1.748274    0.113844
     30          1           0        3.323209    3.257536   -0.154572
     31          1           0       -0.904088    1.439172    2.087581
     32          1           0       -2.659093    1.118323    1.948194
     33          1           0       -1.929098    2.535715    1.117399
 ---------------------------------------------------------------------
 Rotational constants (GHZ):           0.8266673           0.5177897           0.3601190
 Standard basis: Aug-CC-pVDZ (5D, 7F)
 There are   521 symmetry adapted cartesian basis functions of A   symmetry.
 There are   493 symmetry adapted basis functions of A   symmetry.
   493 basis functions,   811 primitive gaussians,   521 cartesian basis functions
    54 alpha electrons       54 beta electrons
       nuclear repulsion energy       973.0857201042 Hartrees.
 NAtoms=   33 NActive=   33 NUniq=   33 SFac= 1.00D+00 NAtFMM=   60 NAOKFM=F Big=F
 Integral buffers will be    131072 words long.
 Raffenetti 2 integral format.
 Two-electron integral symmetry is turned on.
 Nuclear repulsion after empirical dispersion term =      973.0590141334 Hartrees.
 One-electron integrals computed using PRISM.
 NBasis=   493 RedAO= T EigKep=  3.07D-06  NBF=   493
 NBsUse=   493 1.00D-06 EigRej= -1.00D+00 NBFU=   493
 ExpMin= 2.97D-02 ExpMax= 1.17D+04 ExpMxC= 4.01D+02 IAcc=3 IRadAn=         5 AccDes= 0.00D+00
 Harris functional with IExCor= 4639 and IRadAn=       5 diagonalized for initial guess.
 HarFok:  IExCor= 4639 AccDes= 0.00D+00 IRadAn=         5 IDoV= 1 UseB2=F ITyADJ=14
 ICtDFT=  3500011 ScaDFX=  1.000000  1.000000  1.000000  1.000000
 FoFCou: FMM=F IPFlag=           0 FMFlag=      100000 FMFlg1=           0
         NFxFlg=           0 DoJE=T BraDBF=F KetDBF=T FulRan=T
         wScrn=  0.000000 ICntrl=       500 IOpCl=  0 I1Cent=   200000004 NGrid=           0
         NMat0=    1 NMatS0=      1 NMatT0=    0 NMatD0=    1 NMtDS0=    0 NMtDT0=    0
 Petite list used in FoFCou.
 Requested convergence on RMS density matrix=1.00D-08 within 128 cycles.
 Requested convergence on MAX density matrix=1.00D-06.
 Requested convergence on             energy=1.00D-06.
 No special actions if energy rises.
 SCF Done:  E(RwB97XD) =  -652.155946677     A.U. after   14 cycles
            NFock= 14  Conv=0.84D-08     -V/T= 2.0063
 DoSCS=F DFT=T ScalE2(SS,OS)=  1.000000  1.000000
 Range of M.O.s used for correlation:     1   493
 NBasis=   493 NAE=    54 NBE=    54 NFC=     0 NFV=     0
 NROrb=    493 NOA=    54 NOB=    54 NVA=   439 NVB=   439

 **** Warning!!: The largest alpha MO coefficient is  0.10344965D+03

 Symmetrizing basis deriv contribution to polar:
 IMax=3 JMax=2 DiffMx= 0.00D+00
 G2DrvN: will do    34 centers at a time, making    1 passes.
 Calling FoFCou, ICntrl=  3107 FMM=F I1Cent=   0 AccDes= 0.00D+00.
 End of G2Drv F.D. properties file   721 does not exist.
 End of G2Drv F.D. properties file   722 does not exist.
 End of G2Drv F.D. properties file   788 does not exist.
          IDoAtm=111111111111111111111111111111111
          Differentiating once with respect to electric field.
                with respect to dipole field.
          Differentiating once with respect to nuclear coordinates.
 CalDSu exits because no D1Ps are significant.
          There are   102 degrees of freedom in the 1st order CPHF.  IDoFFX=6 NUNeed=     3.
     99 vectors produced by pass  0 Test12= 2.37D-14 1.00D-09 XBig12= 7.01D+01 3.39D+00.
 AX will form    99 AO Fock derivatives at one time.
     99 vectors produced by pass  1 Test12= 2.37D-14 1.00D-09 XBig12= 9.19D+00 6.80D-01.
     99 vectors produced by pass  2 Test12= 2.37D-14 1.00D-09 XBig12= 1.96D-01 7.54D-02.
     99 vectors produced by pass  3 Test12= 2.37D-14 1.00D-09 XBig12= 1.88D-03 4.34D-03.
     99 vectors produced by pass  4 Test12= 2.37D-14 1.00D-09 XBig12= 1.88D-05 3.24D-04.
     99 vectors produced by pass  5 Test12= 2.37D-14 1.00D-09 XBig12= 1.36D-07 2.15D-05.
     99 vectors produced by pass  6 Test12= 2.37D-14 1.00D-09 XBig12= 8.03D-10 2.22D-06.
     35 vectors produced by pass  7 Test12= 2.37D-14 1.00D-09 XBig12= 3.96D-12 1.35D-07.
      3 vectors produced by pass  8 Test12= 2.37D-14 1.00D-09 XBig12= 2.24D-14 9.01D-09.
      3 vectors produced by pass  9 Test12= 2.37D-14 1.00D-09 XBig12= 7.94D-16 2.01D-09.
 InvSVY:  IOpt=1 It=  1 EMax= 4.44D-15
 Solved reduced A of dimension   734 with   102 vectors.
 Isotropic polarizability for W=    0.000000      140.47 Bohr**3.
 End of Minotr F.D. properties file   721 does not exist.
 End of Minotr F.D. properties file   722 does not exist.
 End of Minotr F.D. properties file   788 does not exist.

 **********************************************************************

            Population analysis using the SCF density.

 **********************************************************************

 Orbital symmetries:
       Occupied  (A) (A) (A) (A) (A) (A) (A) (A) (A) (A) (A) (A)
                 (A) (A) (A) (A) (A) (A) (A) (A) (A) (A) (A) (A)
                 (A) (A) (A) (A) (A) (A) (A) (A) (A) (A) (A) (A)
                 (A) (A) (A) (A) (A) (A) (A) (A) (A) (A) (A) (A)
                 (A) (A) (A) (A) (A) (A)
       Virtual   (A) (A) (A) (A) (A) (A) (A) (A) (A) (A) (A) (A)
                 (A) (A) (A) (A) (A) (A) (A) (A) (A) (A) (A) (A)
                 (A) (A) (A) (A) (A) (A) (A) (A) (A) (A) (A) (A)
                 (A) (A) (A) (A) (A) (A) (A) (A) (A) (A) (A) (A)
                 (A) (A) (A) (A) (A) (A) (A) (A) (A) (A) (A) (A)
                 (A) (A) (A) (A) (A) (A) (A) (A) (A) (A) (A) (A)
                 (A) (A) (A) (A) (A) (A) (A) (A) (A) (A) (A) (A)
                 (A) (A) (A) (A) (A) (A) (A) (A) (A) (A) (A) (A)
                 (A) (A) (A) (A) (A) (A) (A) (A) (A) (A) (A) (A)
                 (A) (A) (A) (A) (A) (A) (A) (A) (A) (A) (A) (A)
                 (A) (A) (A) (A) (A) (A) (A) (A) (A) (A) (A) (A)
                 (A) (A) (A) (A) (A) (A) (A) (A) (A) (A) (A) (A)
                 (A) (A) (A) (A) (A) (A) (A) (A) (A) (A) (A) (A)
                 (A) (A) (A) (A) (A) (A) (A) (A) (A) (A) (A) (A)
                 (A) (A) (A) (A) (A) (A) (A) (A) (A) (A) (A) (A)
                 (A) (A) (A) (A) (A) (A) (A) (A) (A) (A) (A) (A)
                 (A) (A) (A) (A) (A) (A) (A) (A) (A) (A) (A) (A)
                 (A) (A) (A) (A) (A) (A) (A) (A) (A) (A) (A) (A)
                 (A) (A) (A) (A) (A) (A) (A) (A) (A) (A) (A) (A)
                 (A) (A) (A) (A) (A) (A) (A) (A) (A) (A) (A) (A)
                 (A) (A) (A) (A) (A) (A) (A) (A) (A) (A) (A) (A)
                 (A) (A) (A) (A) (A) (A) (A) (A) (A) (A) (A) (A)
                 (A) (A) (A) (A) (A) (A) (A) (A) (A) (A) (A) (A)
                 (A) (A) (A) (A) (A) (A) (A) (A) (A) (A) (A) (A)
                 (A) (A) (A) (A) (A) (A) (A) (A) (A) (A) (A) (A)
                 (A) (A) (A) (A) (A) (A) (A) (A) (A) (A) (A) (A)
                 (A) (A) (A) (A) (A) (A) (A) (A) (A) (A) (A) (A)
                 (A) (A) (A) (A) (A) (A) (A) (A) (A) (A) (A) (A)
                 (A) (A) (A) (A) (A) (A) (A) (A) (A) (A) (A) (A)
                 (A) (A) (A) (A) (A) (A) (A) (A) (A) (A) (A) (A)
                 (A) (A) (A) (A) (A) (A) (A) (A) (A) (A) (A) (A)
                 (A) (A) (A) (A) (A) (A) (A) (A) (A) (A) (A) (A)
                 (A) (A) (A) (A) (A) (A) (A) (A) (A) (A) (A) (A)
                 (A) (A) (A) (A) (A) (A) (A) (A) (A) (A) (A) (A)
                 (A) (A) (A) (A) (A) (A) (A) (A) (A) (A) (A) (A)
                 (A) (A) (A) (A) (A) (A) (A) (A) (A) (A) (A) (A)
                 (A) (A) (A) (A) (A) (A) (A)
 The electronic state is 1-A.
 Alpha  occ. eigenvalues --  -19.40137 -19.38791 -14.69600 -14.58508 -10.50608
 Alpha  occ. eigenvalues --  -10.49196 -10.48838 -10.46927 -10.46211 -10.45746
 Alpha  occ. eigenvalues --  -10.45177 -10.44892 -10.44801 -10.43560  -1.25836
 Alpha  occ. eigenvalues --   -1.24387  -1.22745  -1.18347  -1.07345  -1.05097
 Alpha  occ. eigenvalues --   -1.01615  -0.97614  -0.95676  -0.88131  -0.87075
 Alpha  occ. eigenvalues --   -0.84900  -0.83748  -0.79156  -0.76155  -0.75899
 Alpha  occ. eigenvalues --   -0.74518  -0.73142  -0.72167  -0.70787  -0.69512
 Alpha  occ. eigenvalues --   -0.67231  -0.66686  -0.65165  -0.64698  -0.63506
 Alpha  occ. eigenvalues --   -0.62286  -0.61889  -0.61138  -0.60106  -0.59019
 Alpha  occ. eigenvalues --   -0.58630  -0.58570  -0.57382  -0.56565  -0.53905
 Alpha  occ. eigenvalues --   -0.52134  -0.49854  -0.48025  -0.46822
 Alpha virt. eigenvalues --   -0.09737  -0.08784  -0.06972  -0.05934  -0.05296
 Alpha virt. eigenvalues --   -0.04976  -0.03606  -0.03563  -0.03317  -0.02971
 Alpha virt. eigenvalues --   -0.02538  -0.01570  -0.01258  -0.01056  -0.00549
 Alpha virt. eigenvalues --   -0.00184   0.00012   0.00774   0.01008   0.01505
 Alpha virt. eigenvalues --    0.01571   0.02012   0.02479   0.02709   0.03122
 Alpha virt. eigenvalues --    0.03524   0.03853   0.04161   0.04419   0.04508
 Alpha virt. eigenvalues --    0.05110   0.05332   0.05377   0.05748   0.05786
 Alpha virt. eigenvalues --    0.06200   0.06713   0.07034   0.07274   0.07559
 Alpha virt. eigenvalues --    0.07762   0.07934   0.08102   0.08395   0.08890
 Alpha virt. eigenvalues --    0.09492   0.09604   0.09750   0.09926   0.10673
 Alpha virt. eigenvalues --    0.10928   0.11050   0.11438   0.11785   0.11985
 Alpha virt. eigenvalues --    0.12792   0.12902   0.13391   0.13715   0.14260
 Alpha virt. eigenvalues --    0.14390   0.15116   0.15645   0.15806   0.16103
 Alpha virt. eigenvalues --    0.16301   0.16630   0.17000   0.17327   0.17807
 Alpha virt. eigenvalues --    0.18313   0.18475   0.18867   0.19155   0.19486
 Alpha virt. eigenvalues --    0.20154   0.20290   0.20390   0.21144   0.21542
 Alpha virt. eigenvalues --    0.21545   0.21947   0.22242   0.22507   0.23237
 Alpha virt. eigenvalues --    0.23425   0.23679   0.23993   0.24563   0.24871
 Alpha virt. eigenvalues --    0.25466   0.25726   0.26425   0.26491   0.27823
 Alpha virt. eigenvalues --    0.27980   0.28315   0.28575   0.28914   0.29273
 Alpha virt. eigenvalues --    0.29863   0.30142   0.30643   0.31142   0.31405
 Alpha virt. eigenvalues --    0.31754   0.31962   0.32869   0.33425   0.33584
 Alpha virt. eigenvalues --    0.34023   0.34450   0.34676   0.34807   0.35342
 Alpha virt. eigenvalues --    0.36291   0.36829   0.37630   0.37648   0.38615
 Alpha virt. eigenvalues --    0.39152   0.39432   0.40127   0.40685   0.41003
 Alpha virt. eigenvalues --    0.41163   0.41668   0.42236   0.42709   0.42877
 Alpha virt. eigenvalues --    0.43226   0.43499   0.44085   0.44695   0.44919
 Alpha virt. eigenvalues --    0.45335   0.46357   0.46506   0.47105   0.47588
 Alpha virt. eigenvalues --    0.48075   0.48227   0.48745   0.48939   0.50040
 Alpha virt. eigenvalues --    0.50404   0.50537   0.51604   0.51944   0.52469
 Alpha virt. eigenvalues --    0.52561   0.52690   0.53246   0.53494   0.53966
 Alpha virt. eigenvalues --    0.54228   0.54572   0.54814   0.55829   0.55979
 Alpha virt. eigenvalues --    0.56524   0.57255   0.57340   0.57884   0.58553
 Alpha virt. eigenvalues --    0.58660   0.59422   0.59562   0.60202   0.61149
 Alpha virt. eigenvalues --    0.61307   0.61477   0.62324   0.62739   0.63703
 Alpha virt. eigenvalues --    0.64287   0.64706   0.65417   0.65695   0.65799
 Alpha virt. eigenvalues --    0.66190   0.66748   0.66832   0.67038   0.68077
 Alpha virt. eigenvalues --    0.68563   0.68996   0.69263   0.70020   0.70157
 Alpha virt. eigenvalues --    0.71130   0.71517   0.72298   0.72529   0.73129
 Alpha virt. eigenvalues --    0.73504   0.74415   0.75120   0.75900   0.76232
 Alpha virt. eigenvalues --    0.76664   0.76738   0.77836   0.78479   0.78732
 Alpha virt. eigenvalues --    0.79696   0.80254   0.80599   0.81428   0.81729
 Alpha virt. eigenvalues --    0.82111   0.83330   0.83848   0.85136   0.86722
 Alpha virt. eigenvalues --    0.86855   0.87303   0.88191   0.89016   0.89406
 Alpha virt. eigenvalues --    0.90450   0.91521   0.91960   0.92821   0.93843
 Alpha virt. eigenvalues --    0.95125   0.95598   0.96430   0.97097   0.97677
 Alpha virt. eigenvalues --    0.98235   0.98788   1.00455   1.01773   1.02808
 Alpha virt. eigenvalues --    1.03004   1.04222   1.05106   1.05889   1.06380
 Alpha virt. eigenvalues --    1.07673   1.08020   1.09261   1.10192   1.10346
 Alpha virt. eigenvalues --    1.11106   1.11848   1.12601   1.13680   1.15411
 Alpha virt. eigenvalues --    1.15739   1.16972   1.17752   1.18212   1.19995
 Alpha virt. eigenvalues --    1.21395   1.22158   1.22840   1.25203   1.26595
 Alpha virt. eigenvalues --    1.27476   1.28360   1.30343   1.31798   1.33367
 Alpha virt. eigenvalues --    1.33946   1.34649   1.35393   1.35873   1.36863
 Alpha virt. eigenvalues --    1.38349   1.38851   1.39389   1.40601   1.40645
 Alpha virt. eigenvalues --    1.42687   1.42778   1.44054   1.44548   1.45264
 Alpha virt. eigenvalues --    1.46563   1.47370   1.48073   1.48764   1.49872
 Alpha virt. eigenvalues --    1.51006   1.51409   1.52411   1.53944   1.54442
 Alpha virt. eigenvalues --    1.55396   1.56442   1.57307   1.58570   1.59989
 Alpha virt. eigenvalues --    1.61300   1.61374   1.61724   1.64188   1.64621
 Alpha virt. eigenvalues --    1.65254   1.66191   1.67298   1.68387   1.69502
 Alpha virt. eigenvalues --    1.70925   1.72204   1.72467   1.72718   1.73833
 Alpha virt. eigenvalues --    1.74690   1.76469   1.77137   1.77946   1.78392
 Alpha virt. eigenvalues --    1.78780   1.80720   1.80990   1.81649   1.83253
 Alpha virt. eigenvalues --    1.83280   1.84269   1.84567   1.84954   1.85976
 Alpha virt. eigenvalues --    1.86392   1.87957   1.88847   1.89140   1.89944
 Alpha virt. eigenvalues --    1.90566   1.91983   1.92371   1.93437   1.94590
 Alpha virt. eigenvalues --    1.95044   1.95950   1.97519   1.98695   1.99259
 Alpha virt. eigenvalues --    2.00204   2.01257   2.02530   2.03121   2.04693
 Alpha virt. eigenvalues --    2.05474   2.08084   2.08678   2.09569   2.10420
 Alpha virt. eigenvalues --    2.11909   2.12432   2.14376   2.15132   2.15795
 Alpha virt. eigenvalues --    2.17261   2.17907   2.18897   2.19864   2.20580
 Alpha virt. eigenvalues --    2.22965   2.23990   2.24471   2.24989   2.26801
 Alpha virt. eigenvalues --    2.27716   2.30057   2.30874   2.31442   2.33201
 Alpha virt. eigenvalues --    2.34039   2.35390   2.36871   2.37866   2.39378
 Alpha virt. eigenvalues --    2.40856   2.42218   2.42952   2.43804   2.45160
 Alpha virt. eigenvalues --    2.47251   2.48581   2.49641   2.51436   2.53308
 Alpha virt. eigenvalues --    2.54280   2.55394   2.55592   2.56889   2.57559
 Alpha virt. eigenvalues --    2.58044   2.60397   2.62284   2.63424   2.64670
 Alpha virt. eigenvalues --    2.66225   2.67847   2.68863   2.70341   2.71318
 Alpha virt. eigenvalues --    2.73673   2.75009   2.75897   2.76717   2.77124
 Alpha virt. eigenvalues --    2.78135   2.80319   2.80924   2.83063   2.85640
 Alpha virt. eigenvalues --    2.87433   2.89719   2.91685   2.93443   2.94747
 Alpha virt. eigenvalues --    2.96522   2.98447   3.01402   3.07399   3.13687
 Alpha virt. eigenvalues --    3.21256   3.26176   3.33740   3.35037   3.38195
 Alpha virt. eigenvalues --    3.39992   3.41556   3.48229   3.53476   3.53805
 Alpha virt. eigenvalues --    3.57819   3.63621   3.80352   3.84312   3.88807
 Alpha virt. eigenvalues --    3.97709   4.06067   4.15910   4.56143
          Condensed to atoms (all electrons):
               1          2          3          4          5          6
     1  C   15.627906  -4.111735   0.363764  -0.530393  -1.282464   0.055687
     2  C   -4.111735  19.650280  -7.851733  -0.404211  -0.644802   0.257444
     3  C    0.363764  -7.851733  21.379531  -2.864175   0.568965  -0.761307
     4  C   -0.530393  -0.404211  -2.864175  10.984849  -1.597041   0.205855
     5  C   -1.282464  -0.644802   0.568965  -1.597041   8.986218   0.418543
     6  N    0.055687   0.257444  -0.761307   0.205855   0.418543   7.443304
     7  C   -3.035860  -3.231241  -3.439214   0.565067  -0.630079   0.009266
     8  C   -0.338147  -0.527793  -0.632366  -0.108648  -0.016673  -0.009122
     9  C    0.066649   0.129275  -0.170717  -0.026285  -0.017165   0.006203
    10  C    0.044504  -0.180405  -0.146524  -0.003580   0.002872  -0.001617
    11  N   -0.427154   0.800748  -0.394529  -0.043040   0.040722   0.102451
    12  O   -0.137886   0.087536  -0.024696  -0.011699   0.036121   0.019661
    13  H    0.013578  -0.182150  -0.025689   0.000156  -0.001070   0.001973
    14  H    0.035979   0.176718   0.000425  -0.006395   0.003559  -0.000479
    15  H   -0.010300  -0.122458   0.012128   0.001594  -0.002136   0.000028
    16  H   -0.003589   0.093671  -0.119202   0.049645   0.009983   0.005181
    17  H   -0.050181  -0.099507  -0.007879  -0.006270  -0.003240   0.003546
    18  H    0.043233   0.082753   0.022185  -0.007263   0.003566  -0.003528
    19  H    0.320571   0.436832   0.257732  -0.008447  -0.007633  -0.013558
    20  H   -1.234739  -0.250737  -0.002383  -0.059513   0.118799  -0.187217
    21  H    0.331857  -0.303685   0.300791  -0.058159  -0.286546  -0.242159
    22  H   -0.050645   0.057449   0.590232  -1.018030   0.255140  -0.050638
    23  H    0.092036   0.834283  -2.053803   0.362313  -0.088491  -0.020787
    24  C   -0.200683  -0.024492   0.014454   0.008817  -0.021464  -0.015294
    25  H    0.059097  -0.004379  -0.048282   0.021708  -0.000701   0.023435
    26  H    0.029560   0.002212  -0.016733   0.005608  -0.013056  -0.003243
    27  H    0.009100  -0.004954   0.002746   0.000552  -0.000983  -0.003197
    28  O   -0.079008   0.011632  -0.018032   0.004701   0.028273   0.004727
    29  H   -0.062530   0.008355  -0.006274  -0.026832   0.046699   0.121577
    30  H    0.017353  -0.000351   0.000047   0.002557  -0.003634  -0.011154
    31  H   -0.058561   0.016595  -0.065350   0.008020  -0.006834  -0.014975
    32  H   -0.029275  -0.039794   0.013900  -0.001971   0.001469   0.001070
    33  H    0.045920  -0.047466   0.019485  -0.001057  -0.001775  -0.004739
               7          8          9         10         11         12
     1  C   -3.035860  -0.338147   0.066649   0.044504  -0.427154  -0.137886
     2  C   -3.231241  -0.527793   0.129275  -0.180405   0.800748   0.087536
     3  C   -3.439214  -0.632366  -0.170717  -0.146524  -0.394529  -0.024696
     4  C    0.565067  -0.108648  -0.026285  -0.003580  -0.043040  -0.011699
     5  C   -0.630079  -0.016673  -0.017165   0.002872   0.040722   0.036121
     6  N    0.009266  -0.009122   0.006203  -0.001617   0.102451   0.019661
     7  C   21.894199  -0.767020  -0.153301  -0.189375  -4.175887  -0.054377
     8  C   -0.767020   7.201473   0.017333  -0.021835  -0.138507   0.004006
     9  C   -0.153301   0.017333   6.066133   0.471522  -0.400506  -0.015787
    10  C   -0.189375  -0.021835   0.471522   4.928267   0.363595  -0.034712
    11  N   -4.175887  -0.138507  -0.400506   0.363595  14.664044  -0.211650
    12  O   -0.054377   0.004006  -0.015787  -0.034712  -0.211650   8.099632
    13  H    0.109829   0.183986  -0.009495  -0.026061  -0.626247   0.002479
    14  H   -0.179187   0.066083  -0.206134  -0.076079   0.017708   0.001247
    15  H    0.081501   0.189406  -0.197579   0.064151   0.102337  -0.002847
    16  H   -0.186140  -0.100345  -0.086305   0.035316  -0.024952   0.007174
    17  H    0.598783  -0.521044  -0.018511  -0.019378   0.345025   0.000546
    18  H    0.361231  -0.077959  -0.115073  -0.115320  -0.709680   0.023860
    19  H   -1.727088   0.178340  -0.012074   0.073200  -0.677677  -0.005569
    20  H   -0.008188   0.063341  -0.007984  -0.039595  -0.528522   0.117171
    21  H   -0.000612   0.001206  -0.000738   0.000238  -0.000106  -0.000381
    22  H   -0.046898   0.020500   0.001466  -0.000183   0.000306   0.000252
    23  H   -0.383858   0.208569   0.017500   0.024005  -0.003296  -0.003368
    24  C   -0.303815   0.298099  -0.163971  -0.146947  -0.129311   0.023902
    25  H   -0.381991   0.037530   0.009155  -0.043942   0.143189  -0.012186
    26  H    0.045745  -0.004212   0.003672  -0.000031   0.001100   0.315237
    27  H   -0.016941   0.006574  -0.003115   0.006816   0.004189   0.347846
    28  O   -0.008940   0.001267   0.000018  -0.003455   0.009814  -0.051883
    29  H   -0.028612  -0.000645   0.000121   0.000945   0.012119   0.007493
    30  H    0.004109   0.000214  -0.000011  -0.000208   0.001203   0.000779
    31  H    0.158875   0.070746  -0.024039  -0.134679  -0.335030   0.042957
    32  H   -0.004065   0.055750   0.048754   0.050161   0.156230  -0.013911
    33  H    0.169631  -0.022873  -0.028113   0.096727  -0.918010  -0.005558
              13         14         15         16         17         18
     1  C    0.013578   0.035979  -0.010300  -0.003589  -0.050181   0.043233
     2  C   -0.182150   0.176718  -0.122458   0.093671  -0.099507   0.082753
     3  C   -0.025689   0.000425   0.012128  -0.119202  -0.007879   0.022185
     4  C    0.000156  -0.006395   0.001594   0.049645  -0.006270  -0.007263
     5  C   -0.001070   0.003559  -0.002136   0.009983  -0.003240   0.003566
     6  N    0.001973  -0.000479   0.000028   0.005181   0.003546  -0.003528
     7  C    0.109829  -0.179187   0.081501  -0.186140   0.598783   0.361231
     8  C    0.183986   0.066083   0.189406  -0.100345  -0.521044  -0.077959
     9  C   -0.009495  -0.206134  -0.197579  -0.086305  -0.018511  -0.115073
    10  C   -0.026061  -0.076079   0.064151   0.035316  -0.019378  -0.115320
    11  N   -0.626247   0.017708   0.102337  -0.024952   0.345025  -0.709680
    12  O    0.002479   0.001247  -0.002847   0.007174   0.000546   0.023860
    13  H    2.259167  -0.158853   0.000982   0.004920   0.008761  -0.371028
    14  H   -0.158853   1.856869  -0.385182   0.113756  -0.187227   0.151805
    15  H    0.000982  -0.385182   1.780017  -0.140119   0.009730  -0.174343
    16  H    0.004920   0.113756  -0.140119   2.094592  -0.442138   0.032958
    17  H    0.008761  -0.187227   0.009730  -0.442138   2.186868  -0.022973
    18  H   -0.371028   0.151805  -0.174343   0.032958  -0.022973   2.343041
    19  H   -0.010424   0.034323   0.002135   0.103021  -0.332785   0.022939
    20  H   -0.018221   0.005686  -0.004015   0.003534   0.001730   0.012938
    21  H   -0.000098   0.000098  -0.000070   0.000061  -0.000167   0.000423
    22  H    0.000162  -0.000447   0.000469   0.001818  -0.000147  -0.000819
    23  H   -0.002840   0.010512  -0.003839   0.000575  -0.076761   0.008256
    24  C    0.192848  -0.040446   0.044891  -0.042195  -0.013276  -0.046466
    25  H   -0.038747   0.000549  -0.009969   0.005446   0.024882  -0.030302
    26  H    0.005316   0.000925  -0.000709   0.001430  -0.000925   0.001109
    27  H    0.000006  -0.001305   0.001402  -0.002159   0.000411  -0.001103
    28  O   -0.000120   0.000006  -0.000031  -0.000079   0.000093  -0.000474
    29  H    0.000340   0.000064  -0.000014   0.000252  -0.000259  -0.000615
    30  H   -0.000116  -0.000019   0.000016  -0.000092   0.000046   0.000049
    31  H    0.037297  -0.014423   0.003708   0.001767   0.000711  -0.016733
    32  H    0.027404  -0.027345   0.011868  -0.003557   0.010631   0.003857
    33  H    0.019024   0.011449   0.000566  -0.006547  -0.006046   0.034377
              19         20         21         22         23         24
     1  C    0.320571  -1.234739   0.331857  -0.050645   0.092036  -0.200683
     2  C    0.436832  -0.250737  -0.303685   0.057449   0.834283  -0.024492
     3  C    0.257732  -0.002383   0.300791   0.590232  -2.053803   0.014454
     4  C   -0.008447  -0.059513  -0.058159  -1.018030   0.362313   0.008817
     5  C   -0.007633   0.118799  -0.286546   0.255140  -0.088491  -0.021464
     6  N   -0.013558  -0.187217  -0.242159  -0.050638  -0.020787  -0.015294
     7  C   -1.727088  -0.008188  -0.000612  -0.046898  -0.383858  -0.303815
     8  C    0.178340   0.063341   0.001206   0.020500   0.208569   0.298099
     9  C   -0.012074  -0.007984  -0.000738   0.001466   0.017500  -0.163971
    10  C    0.073200  -0.039595   0.000238  -0.000183   0.024005  -0.146947
    11  N   -0.677677  -0.528522  -0.000106   0.000306  -0.003296  -0.129311
    12  O   -0.005569   0.117171  -0.000381   0.000252  -0.003368   0.023902
    13  H   -0.010424  -0.018221  -0.000098   0.000162  -0.002840   0.192848
    14  H    0.034323   0.005686   0.000098  -0.000447   0.010512  -0.040446
    15  H    0.002135  -0.004015  -0.000070   0.000469  -0.003839   0.044891
    16  H    0.103021   0.003534   0.000061   0.001818   0.000575  -0.042195
    17  H   -0.332785   0.001730  -0.000167  -0.000147  -0.076761  -0.013276
    18  H    0.022939   0.012938   0.000423  -0.000819   0.008256  -0.046466
    19  H    2.600814   0.000958   0.000621  -0.003876   0.035512   0.123271
    20  H    0.000958   4.073942   0.040981  -0.011171  -0.028576   0.152243
    21  H    0.000621   0.040981   1.920521  -0.116546   0.000470   0.000956
    22  H   -0.003876  -0.011171  -0.116546   2.104785  -0.143045  -0.000096
    23  H    0.035512  -0.028576   0.000470  -0.143045   3.077899  -0.005128
    24  C    0.123271   0.152243   0.000956  -0.000096  -0.005128   4.850675
    25  H    0.029178   0.022275  -0.004014  -0.000990   0.009382  -0.090283
    26  H   -0.002583  -0.041453  -0.003867   0.000418   0.000654  -0.017610
    27  H    0.000530  -0.003939   0.000360   0.000040  -0.000208   0.016346
    28  O   -0.001867   0.011494   0.001804   0.000345  -0.000798   0.006037
    29  H   -0.000431  -0.058361  -0.032661   0.004989   0.000443  -0.001269
    30  H    0.000116   0.010041   0.002960  -0.000296   0.000056  -0.000202
    31  H   -0.004466   0.047985  -0.001081   0.000965  -0.001247   0.363016
    32  H   -0.038477   0.005379   0.000149  -0.000091  -0.001423   0.151575
    33  H    0.063961   0.025957   0.000152  -0.000119   0.001731   0.421339
              25         26         27         28         29         30
     1  C    0.059097   0.029560   0.009100  -0.079008  -0.062530   0.017353
     2  C   -0.004379   0.002212  -0.004954   0.011632   0.008355  -0.000351
     3  C   -0.048282  -0.016733   0.002746  -0.018032  -0.006274   0.000047
     4  C    0.021708   0.005608   0.000552   0.004701  -0.026832   0.002557
     5  C   -0.000701  -0.013056  -0.000983   0.028273   0.046699  -0.003634
     6  N    0.023435  -0.003243  -0.003197   0.004727   0.121577  -0.011154
     7  C   -0.381991   0.045745  -0.016941  -0.008940  -0.028612   0.004109
     8  C    0.037530  -0.004212   0.006574   0.001267  -0.000645   0.000214
     9  C    0.009155   0.003672  -0.003115   0.000018   0.000121  -0.000011
    10  C   -0.043942  -0.000031   0.006816  -0.003455   0.000945  -0.000208
    11  N    0.143189   0.001100   0.004189   0.009814   0.012119   0.001203
    12  O   -0.012186   0.315237   0.347846  -0.051883   0.007493   0.000779
    13  H   -0.038747   0.005316   0.000006  -0.000120   0.000340  -0.000116
    14  H    0.000549   0.000925  -0.001305   0.000006   0.000064  -0.000019
    15  H   -0.009969  -0.000709   0.001402  -0.000031  -0.000014   0.000016
    16  H    0.005446   0.001430  -0.002159  -0.000079   0.000252  -0.000092
    17  H    0.024882  -0.000925   0.000411   0.000093  -0.000259   0.000046
    18  H   -0.030302   0.001109  -0.001103  -0.000474  -0.000615   0.000049
    19  H    0.029178  -0.002583   0.000530  -0.001867  -0.000431   0.000116
    20  H    0.022275  -0.041453  -0.003939   0.011494  -0.058361   0.010041
    21  H   -0.004014  -0.003867   0.000360   0.001804  -0.032661   0.002960
    22  H   -0.000990   0.000418   0.000040   0.000345   0.004989  -0.000296
    23  H    0.009382   0.000654  -0.000208  -0.000798   0.000443   0.000056
    24  C   -0.090283  -0.017610   0.016346   0.006037  -0.001269  -0.000202
    25  H    1.193358  -0.001781  -0.024123   0.000037   0.002612  -0.000217
    26  H   -0.001781   0.549202  -0.122691  -0.011045   0.004646  -0.007927
    27  H   -0.024123  -0.122691   0.586780   0.001846  -0.001171   0.001106
    28  O    0.000037  -0.011045   0.001846   7.830026   0.337366   0.333800
    29  H    0.002612   0.004646  -0.001171   0.337366   0.595359  -0.129076
    30  H   -0.000217  -0.007927   0.001106   0.333800  -0.129076   0.581730
    31  H    0.065137   0.005947   0.000947   0.005147   0.004448  -0.001431
    32  H   -0.055391  -0.003455   0.001266   0.000117  -0.000662   0.000107
    33  H    0.008744   0.001757   0.003925  -0.000305  -0.002028   0.000317
              31         32         33
     1  C   -0.058561  -0.029275   0.045920
     2  C    0.016595  -0.039794  -0.047466
     3  C   -0.065350   0.013900   0.019485
     4  C    0.008020  -0.001971  -0.001057
     5  C   -0.006834   0.001469  -0.001775
     6  N   -0.014975   0.001070  -0.004739
     7  C    0.158875  -0.004065   0.169631
     8  C    0.070746   0.055750  -0.022873
     9  C   -0.024039   0.048754  -0.028113
    10  C   -0.134679   0.050161   0.096727
    11  N   -0.335030   0.156230  -0.918010
    12  O    0.042957  -0.013911  -0.005558
    13  H    0.037297   0.027404   0.019024
    14  H   -0.014423  -0.027345   0.011449
    15  H    0.003708   0.011868   0.000566
    16  H    0.001767  -0.003557  -0.006547
    17  H    0.000711   0.010631  -0.006046
    18  H   -0.016733   0.003857   0.034377
    19  H   -0.004466  -0.038477   0.063961
    20  H    0.047985   0.005379   0.025957
    21  H   -0.001081   0.000149   0.000152
    22  H    0.000965  -0.000091  -0.000119
    23  H   -0.001247  -0.001423   0.001731
    24  C    0.363016   0.151575   0.421339
    25  H    0.065137  -0.055391   0.008744
    26  H    0.005947  -0.003455   0.001757
    27  H    0.000947   0.001266   0.003925
    28  O    0.005147   0.000117  -0.000305
    29  H    0.004448  -0.000662  -0.002028
    30  H   -0.001431   0.000107   0.000317
    31  H    1.671828  -0.341429  -0.305318
    32  H   -0.341429   1.659351  -0.485254
    33  H   -0.305318  -0.485254   2.150213
 Mulliken charges:
               1
     1  C    0.486358
     2  C    1.386110
     3  C    1.102503
     4  C    0.561567
     5  C    0.104858
     6  N   -0.336937
     7  C    0.954451
     8  C    0.682768
     9  C    0.819102
    10  C    1.021607
    11  N   -0.020680
    12  O   -0.551387
    13  H   -0.397067
    14  H   -0.204239
    15  H   -0.253315
    16  H   -0.407680
    17  H   -0.383051
    18  H   -0.454901
    19  H   -0.437098
    20  H   -1.229840
    21  H   -0.552761
    22  H   -0.595297
    23  H   -0.866729
    24  C    0.594475
    25  H    0.091586
    26  H    0.276782
    27  H    0.193102
    28  O   -0.412515
    29  H    0.203608
    30  H    0.198125
    31  H   -0.180502
    32  H   -0.152938
    33  H   -0.240067
 Sum of Mulliken charges =   1.00000
 Mulliken charges with hydrogens summed into heavy atoms:
               1
     1  C   -0.743482
     2  C    1.386110
     3  C    0.235774
     4  C   -0.033729
     5  C   -0.447903
     6  N   -0.336937
     7  C    0.517353
     8  C   -0.107963
     9  C    0.361547
    10  C    0.169639
    11  N    0.070906
    12  O   -0.081503
    24  C    0.020969
    28  O   -0.010782
 APT charges:
               1
     1  C    0.124037
     2  C   -0.086785
     3  C    0.085687
     4  C   -0.118745
     5  C    0.196038
     6  N   -0.431324
     7  C    0.323762
     8  C    0.029076
     9  C    0.058813
    10  C    0.243043
    11  N   -0.467300
    12  O   -0.717700
    13  H    0.024972
    14  H   -0.000129
    15  H    0.028154
    16  H    0.005729
    17  H    0.026071
    18  H    0.012397
    19  H   -0.024524
    20  H    0.053422
    21  H    0.054877
    22  H    0.067956
    23  H    0.069329
    24  C    0.205337
    25  H    0.391732
    26  H    0.448821
    27  H    0.265388
    28  O   -0.699039
    29  H    0.419285
    30  H    0.289005
    31  H    0.039271
    32  H    0.035954
    33  H    0.047389
 Sum of APT charges =   1.00000
 APT charges with hydrogens summed into heavy atoms:
               1
     1  C    0.177459
     2  C   -0.086785
     3  C    0.155016
     4  C   -0.050789
     5  C    0.250915
     6  N   -0.431324
     7  C    0.299238
     8  C    0.060876
     9  C    0.086838
    10  C    0.280413
    11  N   -0.075568
    12  O   -0.003491
    24  C    0.327951
    28  O    0.009251
 Electronic spatial extent (au):  <R**2>=           3195.4265
 Charge=              1.0000 electrons
 Dipole moment (field-independent basis, Debye):
    X=             -3.6484    Y=              0.5742    Z=             -0.7474  Tot=              3.7682
 Quadrupole moment (field-independent basis, Debye-Ang):
   XX=            -47.2589   YY=            -59.7947   ZZ=            -76.3921
   XY=              0.0758   XZ=             -3.7708   YZ=             -0.8185
 Traceless Quadrupole moment (field-independent basis, Debye-Ang):
   XX=             13.8897   YY=              1.3539   ZZ=            -15.2435
   XY=              0.0758   XZ=             -3.7708   YZ=             -0.8185
 Octapole moment (field-independent basis, Debye-Ang**2):
  XXX=             18.1147  YYY=             35.4639  ZZZ=            -10.3926  XYY=             30.8818
  XXY=             22.6591  XXZ=            -13.7050  XZZ=            -16.3920  YZZ=             25.9858
  YYZ=            -22.3552  XYZ=             -2.4290
 Hexadecapole moment (field-independent basis, Debye-Ang**3):
 XXXX=          -1893.1489 YYYY=          -1147.8841 ZZZZ=           -300.3392 XXXY=             85.9847
 XXXZ=            -25.7661 YYYX=             94.6860 YYYZ=            -36.6541 ZZZX=             -6.3573
 ZZZY=            -36.6427 XXYY=           -422.5254 XXZZ=           -436.7814 YYZZ=           -246.2047
 XXYZ=             10.9358 YYXZ=            -36.4643 ZZXY=              6.9150
 N-N= 9.730590141334D+02 E-N=-3.449154192543D+03  KE= 6.480429401325D+02
  Exact polarizability: 167.766  -3.491 147.463  -1.774   8.661 106.192
 Approx polarizability: 171.548  -0.150 163.439  -3.409  11.093 129.753
 Calling FoFJK, ICntrl=    100127 FMM=F ISym2X=0 I1Cent= 0 IOpClX= 0 NMat=1 NMatS=1 NMatT=0.
 Full mass-weighted force constant matrix:
 Low frequencies ---  -10.2892   -0.0009   -0.0004    0.0008    8.1699   10.3019
 Low frequencies ---   33.6349   54.3278   63.6998
 Diagonal vibrational polarizability:
       55.1293760     122.8320287     109.3066967
 Harmonic frequencies (cm**-1), IR intensities (KM/Mole), Raman scattering
 activities (A**4/AMU), depolarization ratios for plane and unpolarized
 incident light, reduced masses (AMU), force constants (mDyne/A),
 and normal coordinates:
                      1                      2                      3
                      A                      A                      A
 Frequencies --     33.4303                54.2868                63.6476
 Red. masses --      3.5483                 4.0509                 4.7974
 Frc consts  --      0.0023                 0.0070                 0.0115
 IR Inten    --      0.7496                 0.4604                 0.6727
  Atom  AN      X      Y      Z        X      Y      Z        X      Y      Z
     1   6     0.01  -0.02   0.04     0.01   0.00  -0.07     0.02   0.01  -0.18
     2   6    -0.00   0.00  -0.00     0.00  -0.01   0.00     0.01  -0.04  -0.01
     3   6    -0.02   0.03  -0.09    -0.01  -0.04   0.06     0.00  -0.11   0.16
     4   6    -0.02   0.04  -0.14    -0.02  -0.05   0.04    -0.00  -0.13   0.15
     5   6    -0.01   0.02  -0.09    -0.01  -0.04  -0.05     0.00  -0.08  -0.05
     6   7     0.00  -0.01   0.00     0.00  -0.01  -0.09     0.01  -0.01  -0.20
     7   6     0.01   0.03   0.05     0.01   0.00   0.03     0.02  -0.00  -0.02
     8   6    -0.04  -0.04   0.19    -0.02  -0.06   0.12     0.01   0.02  -0.04
     9   6    -0.02  -0.02   0.11     0.01  -0.04   0.00     0.01   0.02   0.00
    10   6     0.02  -0.08  -0.07     0.05  -0.09  -0.12     0.00   0.03   0.03
    11   7     0.01   0.00  -0.07    -0.00  -0.02  -0.05     0.05   0.00  -0.02
    12   8     0.09  -0.07  -0.06    -0.04   0.26   0.23    -0.06   0.08  -0.08
    13   1     0.05  -0.03  -0.19     0.06  -0.04  -0.26     0.01   0.03   0.10
    14   1    -0.00   0.11   0.12    -0.02   0.07  -0.01     0.03  -0.00   0.02
    15   1    -0.05  -0.10   0.17     0.02  -0.11   0.02    -0.00   0.05   0.01
    16   1    -0.09  -0.17   0.20    -0.02  -0.18   0.15     0.01   0.04  -0.04
    17   1    -0.05   0.02   0.31    -0.05   0.00   0.23     0.01   0.01  -0.06
    18   1     0.03  -0.23  -0.08     0.12  -0.22  -0.11    -0.04   0.08   0.02
    19   1     0.07   0.13   0.08     0.04   0.08   0.05     0.00  -0.01  -0.03
    20   1     0.02  -0.05   0.12     0.02   0.02  -0.10     0.03   0.05  -0.29
    21   1    -0.02   0.03  -0.12    -0.02  -0.04  -0.07    -0.00  -0.10  -0.07
    22   1    -0.03   0.07  -0.21    -0.03  -0.07   0.08    -0.01  -0.18   0.28
    23   1    -0.02   0.05  -0.13    -0.02  -0.05   0.13    -0.00  -0.14   0.30
    24   6    -0.02   0.10  -0.13    -0.09   0.02  -0.10     0.14   0.03  -0.02
    25   1     0.02  -0.03  -0.08     0.01   0.01  -0.01     0.03  -0.02  -0.06
    26   1     0.05  -0.04   0.04     0.00   0.16   0.15    -0.09   0.12  -0.00
    27   1     0.20  -0.18  -0.12    -0.11   0.41   0.31     0.04  -0.05  -0.15
    28   8    -0.03   0.02   0.21     0.11  -0.01  -0.04    -0.17   0.10   0.23
    29   1    -0.01   0.02   0.15     0.06  -0.04  -0.08    -0.09   0.09   0.01
    30   1    -0.05   0.05   0.26     0.14  -0.05  -0.04    -0.23   0.17   0.33
    31   1    -0.02   0.17  -0.12    -0.11   0.09  -0.07     0.16  -0.01  -0.05
    32   1    -0.02   0.12  -0.11    -0.09   0.00  -0.11     0.14   0.08   0.02
    33   1    -0.03   0.07  -0.22    -0.13   0.00  -0.15     0.18   0.03  -0.03
                      4                      5                      6
                      A                      A                      A
 Frequencies --     98.5557               105.7900               147.3611
 Red. masses --      4.6644                 3.0109                 2.5765
 Frc consts  --      0.0267                 0.0199                 0.0330
 IR Inten    --      3.4999                 6.4217                20.3176
  Atom  AN      X      Y      Z        X      Y      Z        X      Y      Z
     1   6     0.04  -0.05   0.07     0.01  -0.05   0.08     0.04   0.01  -0.09
     2   6     0.03  -0.01  -0.06     0.01  -0.04   0.07     0.03   0.03  -0.12
     3   6     0.02   0.02  -0.14    -0.00  -0.02   0.01     0.02   0.01  -0.09
     4   6     0.04  -0.02  -0.03    -0.01  -0.00  -0.06     0.03  -0.04   0.04
     5   6     0.06  -0.08   0.15    -0.01  -0.00  -0.06     0.05  -0.08   0.11
     6   7     0.06  -0.09   0.19     0.01  -0.03   0.02     0.06  -0.04   0.02
     7   6     0.03   0.01  -0.07     0.01  -0.01   0.08     0.04   0.03  -0.04
     8   6     0.00   0.00  -0.01    -0.00   0.02   0.06    -0.04   0.02   0.07
     9   6    -0.02  -0.02   0.11     0.07   0.10  -0.11    -0.01   0.07   0.06
    10   6    -0.07  -0.01   0.04     0.19   0.05  -0.09     0.05   0.02  -0.04
    11   7     0.03   0.01  -0.08     0.08   0.00   0.07    -0.01   0.04   0.02
    12   8    -0.17   0.22   0.00    -0.12   0.04  -0.02    -0.01  -0.04  -0.08
    13   1    -0.05  -0.02   0.11     0.22   0.10  -0.22     0.08   0.07  -0.16
    14   1     0.07  -0.02   0.17    -0.04   0.17  -0.17     0.01   0.15   0.08
    15   1    -0.11  -0.03   0.18     0.14   0.12  -0.17    -0.05   0.05   0.10
    16   1    -0.07   0.03  -0.05     0.06  -0.08   0.10    -0.11  -0.07   0.06
    17   1     0.06  -0.01  -0.01    -0.11   0.06   0.10    -0.06   0.07   0.15
    18   1    -0.18  -0.01   0.00     0.35  -0.02  -0.04     0.12  -0.10  -0.02
    19   1     0.05   0.04  -0.06     0.00  -0.00   0.08     0.15   0.03  -0.01
    20   1     0.04  -0.06   0.09     0.02  -0.07   0.14     0.04   0.03  -0.13
    21   1     0.07  -0.12   0.27    -0.02   0.02  -0.13     0.07  -0.14   0.24
    22   1     0.03  -0.00  -0.07    -0.02   0.02  -0.12     0.02  -0.07   0.09
    23   1     0.01   0.07  -0.27    -0.01  -0.02   0.01     0.00   0.04  -0.13
    24   6     0.15   0.07  -0.10    -0.05  -0.02   0.05    -0.13  -0.08   0.08
    25   1    -0.01  -0.01  -0.16     0.12   0.00   0.13    -0.02   0.11   0.08
    26   1    -0.15   0.08   0.01    -0.11   0.04  -0.03    -0.01  -0.01  -0.10
    27   1     0.06  -0.19  -0.22     0.03  -0.40  -0.24    -0.26   0.47   0.19
    28   8    -0.11  -0.09  -0.06    -0.14  -0.01  -0.07    -0.05   0.03   0.02
    29   1    -0.05  -0.04   0.04    -0.09   0.01  -0.05    -0.01   0.05  -0.01
    30   1    -0.18   0.01   0.18    -0.18   0.05   0.07    -0.06   0.03  -0.08
    31   1     0.18   0.07  -0.16    -0.11  -0.04   0.14    -0.14  -0.03   0.09
    32   1     0.17   0.13  -0.02    -0.10  -0.02  -0.04    -0.10  -0.22   0.03
    33   1     0.17   0.06  -0.14    -0.00  -0.01   0.06    -0.25  -0.07   0.16
                      7                      8                      9
                      A                      A                      A
 Frequencies --    160.1463               166.2124               184.8184
 Red. masses --      1.3572                 3.6543                 3.8186
 Frc consts  --      0.0205                 0.0595                 0.0768
 IR Inten    --     35.6416                 4.9469                17.1635
  Atom  AN      X      Y      Z        X      Y      Z        X      Y      Z
     1   6    -0.00  -0.02   0.06    -0.11  -0.05  -0.01     0.08  -0.06   0.07
     2   6    -0.00  -0.02   0.05    -0.04  -0.11  -0.04     0.01   0.01   0.04
     3   6    -0.00  -0.01   0.01     0.03  -0.07  -0.04    -0.08   0.00  -0.02
     4   6    -0.01   0.01  -0.03     0.06   0.02   0.02    -0.10  -0.09  -0.04
     5   6    -0.01   0.01  -0.02    -0.01   0.06   0.07    -0.02  -0.15  -0.00
     6   7    -0.01  -0.01   0.02    -0.09   0.04   0.05     0.07  -0.13   0.05
     7   6    -0.00  -0.01   0.02    -0.04  -0.11  -0.03     0.01   0.03   0.02
     8   6     0.01   0.00  -0.01    -0.16  -0.04   0.03     0.07   0.01  -0.03
     9   6     0.02   0.00  -0.03    -0.07   0.10   0.05     0.03  -0.07  -0.04
    10   6     0.02   0.01  -0.00     0.07   0.02  -0.02    -0.04  -0.02   0.01
    11   7     0.03  -0.01  -0.01     0.07  -0.08  -0.02    -0.03   0.02   0.00
    12   8    -0.02  -0.04  -0.01     0.05   0.01   0.02     0.00  -0.02   0.04
    13   1     0.02  -0.00   0.02     0.17   0.11  -0.07    -0.09  -0.07   0.06
    14   1    -0.00  -0.01  -0.04    -0.03   0.20   0.08     0.00  -0.13  -0.06
    15   1     0.04   0.01  -0.04    -0.15   0.14   0.10     0.08  -0.08  -0.07
    16   1     0.04   0.01   0.00    -0.22  -0.13   0.02     0.11   0.07  -0.02
    17   1     0.00  -0.00  -0.02    -0.24  -0.00   0.08     0.12  -0.02  -0.06
    18   1     0.02   0.03  -0.00     0.08  -0.08  -0.02    -0.06   0.04   0.01
    19   1    -0.04   0.01   0.01    -0.02  -0.08  -0.02    -0.02   0.02   0.01
    20   1     0.00  -0.03   0.08    -0.18  -0.06  -0.03     0.13  -0.06   0.12
    21   1    -0.01   0.02  -0.06    -0.00   0.11   0.13    -0.03  -0.22  -0.02
    22   1    -0.01   0.02  -0.07     0.13   0.05   0.03    -0.16  -0.10  -0.08
    23   1    -0.00  -0.00   0.00     0.08  -0.10  -0.09    -0.13   0.06  -0.05
    24   6     0.08   0.05  -0.04     0.14  -0.07  -0.01    -0.04   0.04  -0.01
    25   1     0.02  -0.03  -0.03     0.10  -0.12  -0.02    -0.03   0.02   0.00
    26   1    -0.01  -0.04  -0.05     0.04   0.09   0.01    -0.02   0.06   0.04
    27   1    -0.36   0.72   0.39     0.03  -0.07  -0.01     0.03  -0.18  -0.04
    28   8    -0.07  -0.01   0.02     0.05   0.21  -0.05     0.02   0.32  -0.02
    29   1    -0.08  -0.02  -0.02    -0.03   0.18   0.01     0.06   0.33  -0.08
    30   1    -0.03  -0.09  -0.27     0.13   0.09  -0.27     0.04   0.23  -0.53
    31   1     0.08   0.03  -0.04     0.09  -0.24   0.04    -0.00   0.13  -0.05
    32   1     0.06   0.12  -0.02     0.05   0.07  -0.07     0.01  -0.00   0.03
    33   1     0.14   0.04  -0.08     0.35  -0.04   0.00    -0.12   0.02  -0.05
                     10                     11                     12
                      A                      A                      A
 Frequencies --    209.3319               216.7984               252.1451
 Red. masses --      2.3419                 1.6353                 2.2460
 Frc consts  --      0.0605                 0.0453                 0.0841
 IR Inten    --     61.5409               121.4089                 0.6830
  Atom  AN      X      Y      Z        X      Y      Z        X      Y      Z
     1   6     0.02   0.02  -0.06     0.01   0.00  -0.02     0.02  -0.04   0.09
     2   6     0.02   0.02  -0.05     0.00   0.01  -0.02     0.02  -0.03   0.06
     3   6     0.03   0.01  -0.02    -0.00   0.00  -0.01     0.02  -0.04   0.08
     4   6     0.04  -0.00   0.04    -0.00  -0.01   0.01     0.02  -0.02   0.01
     5   6     0.03   0.01   0.02     0.01  -0.02   0.01     0.01   0.02  -0.08
     6   7     0.02   0.02  -0.04     0.01  -0.01  -0.01     0.01  -0.01   0.01
     7   6     0.01   0.03  -0.03    -0.00   0.01  -0.01     0.01   0.00  -0.05
     8   6    -0.01   0.03  -0.00    -0.01   0.01  -0.00     0.02   0.06  -0.12
     9   6    -0.01   0.04   0.01    -0.01   0.01  -0.01    -0.02   0.06   0.17
    10   6     0.01   0.02  -0.02     0.00   0.01  -0.01     0.01  -0.00  -0.03
    11   7    -0.00   0.02  -0.02    -0.00   0.00  -0.01     0.01   0.02  -0.05
    12   8    -0.02  -0.13   0.20     0.01  -0.12   0.11     0.04   0.01   0.01
    13   1     0.02   0.04  -0.04     0.00   0.01  -0.01     0.06   0.07  -0.13
    14   1     0.01   0.06   0.02    -0.01   0.02  -0.01     0.25   0.12   0.34
    15   1    -0.03   0.03   0.03    -0.00   0.01  -0.01    -0.26   0.05   0.37
    16   1    -0.03   0.01  -0.01    -0.01  -0.00   0.00    -0.07   0.27  -0.20
    17   1    -0.01   0.03   0.01    -0.01   0.01   0.00     0.12  -0.03  -0.28
    18   1     0.01  -0.00  -0.03     0.00   0.01  -0.01    -0.01  -0.17  -0.05
    19   1     0.04   0.02  -0.02     0.01   0.01  -0.00    -0.09  -0.02  -0.08
    20   1     0.01   0.02  -0.05     0.02   0.00  -0.02     0.02  -0.06   0.14
    21   1     0.04  -0.00   0.05     0.01  -0.03   0.02    -0.01   0.06  -0.21
    22   1     0.04  -0.02   0.09    -0.01  -0.02   0.02     0.02  -0.01  -0.01
    23   1     0.03   0.01  -0.01    -0.01   0.01  -0.01     0.02  -0.05   0.11
    24   6     0.01   0.05  -0.04     0.02   0.03  -0.03    -0.10  -0.04  -0.04
    25   1     0.01   0.02  -0.02     0.01  -0.01  -0.01     0.02   0.05  -0.02
    26   1     0.00  -0.16   0.17    -0.00  -0.02   0.08     0.04   0.01   0.02
    27   1     0.07  -0.44   0.04    -0.13   0.06   0.21     0.03   0.05   0.03
    28   8    -0.10  -0.05   0.02    -0.03   0.04  -0.10    -0.04   0.01  -0.03
    29   1    -0.08  -0.06  -0.06     0.07   0.11  -0.00    -0.04   0.01  -0.03
    30   1    -0.06  -0.19  -0.74    -0.20   0.34   0.83    -0.06   0.03   0.01
    31   1     0.02   0.07  -0.05     0.03   0.03  -0.04    -0.18  -0.08   0.06
    32   1     0.02   0.07  -0.02     0.02   0.07  -0.01    -0.17  -0.06  -0.16
    33   1     0.01   0.04  -0.07     0.04   0.03  -0.05    -0.06  -0.03  -0.00
                     13                     14                     15
                      A                      A                      A
 Frequencies --    277.0597               294.7632               311.1749
 Red. masses --      1.1562                 4.5059                 2.7318
 Frc consts  --      0.0523                 0.2307                 0.1559
 IR Inten    --      0.4061                 8.8558                 0.8085
  Atom  AN      X      Y      Z        X      Y      Z        X      Y      Z
     1   6     0.01   0.03  -0.03    -0.03   0.03  -0.01     0.06  -0.09   0.04
     2   6     0.00   0.03  -0.01    -0.02   0.03  -0.01     0.04  -0.07  -0.01
     3   6    -0.02   0.03  -0.02    -0.06   0.03  -0.03     0.12  -0.07   0.03
     4   6    -0.02   0.00  -0.01    -0.07   0.00   0.00     0.13  -0.02   0.00
     5   6    -0.01  -0.02   0.02    -0.05  -0.02   0.04     0.11   0.01  -0.07
     6   7     0.01  -0.00  -0.01    -0.03   0.01  -0.00     0.06  -0.03   0.01
     7   6     0.00   0.00   0.01     0.01   0.02   0.01    -0.01   0.00  -0.01
     8   6     0.03  -0.01  -0.01     0.05  -0.04   0.04    -0.10   0.01   0.06
     9   6     0.02  -0.02   0.02     0.04  -0.07  -0.01    -0.09   0.02  -0.08
    10   6     0.01  -0.02  -0.00    -0.01  -0.03   0.02    -0.13   0.07   0.06
    11   7    -0.00  -0.01   0.02     0.02   0.01  -0.01    -0.06   0.03  -0.00
    12   8    -0.04  -0.01  -0.00     0.33   0.12   0.03     0.05   0.03  -0.01
    13   1     0.01  -0.01  -0.03    -0.04  -0.07   0.06    -0.15   0.01   0.24
    14   1     0.04  -0.02   0.03    -0.01  -0.10  -0.05    -0.25  -0.05  -0.18
    15   1    -0.00  -0.03   0.03     0.09  -0.08  -0.05     0.06   0.04  -0.21
    16   1     0.03   0.03  -0.01     0.06  -0.08   0.06    -0.08  -0.15   0.10
    17   1     0.05  -0.02  -0.03     0.06  -0.01   0.10    -0.17   0.08   0.17
    18   1     0.03  -0.04   0.00    -0.04   0.02   0.01    -0.22   0.25   0.05
    19   1    -0.00  -0.02   0.01     0.02   0.04   0.01     0.03   0.05   0.01
    20   1     0.02   0.04  -0.05    -0.03   0.04  -0.04     0.04  -0.11   0.10
    21   1    -0.00  -0.05   0.05    -0.05  -0.05   0.08     0.10   0.08  -0.15
    22   1    -0.04  -0.01  -0.00    -0.07  -0.00   0.01     0.15  -0.02   0.01
    23   1    -0.03   0.04  -0.02    -0.08   0.05  -0.05     0.16  -0.11   0.05
    24   6    -0.01   0.02   0.00     0.03  -0.07   0.05    -0.10   0.05  -0.01
    25   1    -0.00  -0.02   0.02     0.02   0.03   0.00    -0.07   0.04  -0.01
    26   1    -0.04  -0.01  -0.02     0.33   0.07   0.09     0.04   0.01   0.02
    27   1    -0.05  -0.02  -0.01     0.41   0.13   0.02     0.08   0.07   0.00
    28   8     0.03  -0.00   0.02    -0.25  -0.03  -0.10    -0.02   0.01  -0.02
    29   1     0.04  -0.00   0.01    -0.16   0.00  -0.13    -0.01   0.02  -0.01
    30   1     0.03  -0.00   0.00    -0.34   0.05  -0.14    -0.03   0.02  -0.01
    31   1    -0.24  -0.42   0.27    -0.04  -0.27   0.12    -0.22  -0.12   0.13
    32   1    -0.34   0.37  -0.29    -0.07  -0.00  -0.07    -0.26   0.21  -0.17
    33   1     0.54   0.10   0.02     0.20  -0.01   0.15     0.15   0.09  -0.03
                     16                     17                     18
                      A                      A                      A
 Frequencies --    322.2019               405.1133               417.6771
 Red. masses --      3.0810                 3.0625                 3.1469
 Frc consts  --      0.1884                 0.2961                 0.3235
 IR Inten    --      3.9240                 1.5602                 6.5183
  Atom  AN      X      Y      Z        X      Y      Z        X      Y      Z
     1   6    -0.10  -0.06  -0.09    -0.07  -0.09   0.11     0.07  -0.02   0.16
     2   6    -0.03  -0.12  -0.04    -0.01  -0.04  -0.11     0.00   0.05   0.03
     3   6     0.03  -0.09  -0.10    -0.03  -0.05  -0.10    -0.00   0.13  -0.16
     4   6     0.05  -0.02  -0.02    -0.00  -0.07   0.14     0.02  -0.05   0.19
     5   6    -0.01   0.01   0.07    -0.08   0.05  -0.05     0.04  -0.02  -0.02
     6   7    -0.09   0.01  -0.03    -0.10   0.04  -0.04     0.03   0.04  -0.17
     7   6     0.01  -0.05   0.08     0.08   0.10  -0.06    -0.05  -0.07   0.03
     8   6     0.08   0.02  -0.06     0.11   0.03   0.08    -0.07  -0.03  -0.05
     9   6     0.06  -0.02   0.03     0.11  -0.03   0.01    -0.07  -0.00  -0.01
    10   6     0.05  -0.01   0.08    -0.01   0.04   0.02     0.02  -0.05  -0.02
    11   7     0.02   0.01   0.12     0.05   0.09  -0.08    -0.04  -0.06   0.07
    12   8     0.04   0.02  -0.01    -0.05  -0.03   0.01     0.02   0.03  -0.03
    13   1     0.03  -0.03   0.06    -0.08  -0.05   0.15     0.06   0.02  -0.15
    14   1     0.10  -0.07   0.05     0.08  -0.05  -0.00    -0.06   0.02  -0.01
    15   1     0.04   0.02   0.03     0.14  -0.08   0.00    -0.08   0.04  -0.02
    16   1     0.13   0.22  -0.07     0.10  -0.10   0.10    -0.09   0.05  -0.07
    17   1     0.13  -0.07  -0.22     0.14   0.09   0.22    -0.08  -0.07  -0.13
    18   1     0.09   0.00   0.09    -0.13   0.15  -0.01     0.14  -0.15   0.01
    19   1     0.02  -0.10   0.07     0.15   0.17  -0.04    -0.06  -0.14   0.02
    20   1    -0.17  -0.07  -0.13    -0.12  -0.19   0.32     0.15  -0.07   0.36
    21   1     0.02   0.03   0.20    -0.10   0.13  -0.18     0.02  -0.01  -0.10
    22   1     0.12   0.01  -0.01     0.09  -0.10   0.31    -0.01  -0.14   0.37
    23   1     0.08  -0.11  -0.16    -0.02  -0.04  -0.18    -0.04   0.23  -0.41
    24   6    -0.12   0.21  -0.02     0.00  -0.05   0.00     0.02   0.05   0.02
    25   1     0.03  -0.02   0.12     0.02   0.16  -0.08    -0.02  -0.10   0.08
    26   1     0.04   0.06  -0.03    -0.06   0.03   0.02     0.01   0.03   0.02
    27   1     0.01   0.02  -0.01    -0.07  -0.03   0.01     0.07   0.06  -0.01
    28   8    -0.01   0.01  -0.01     0.02   0.02  -0.00    -0.00  -0.00   0.00
    29   1    -0.09  -0.02   0.01    -0.14  -0.06   0.03    -0.01  -0.05  -0.18
    30   1     0.04  -0.05   0.03     0.15  -0.11   0.10     0.01  -0.01   0.04
    31   1    -0.16   0.44   0.05    -0.05  -0.15   0.07     0.06   0.10  -0.03
    32   1    -0.13   0.26  -0.01    -0.04  -0.11  -0.11     0.05   0.12   0.11
    33   1    -0.19   0.13  -0.27     0.03   0.00   0.15     0.03   0.02  -0.09
                     19                     20                     21
                      A                      A                      A
 Frequencies --    451.3780               477.1848               494.1631
 Red. masses --      2.7073                 2.3765                 1.2316
 Frc consts  --      0.3250                 0.3188                 0.1772
 IR Inten    --      1.8967                13.7729                82.3552
  Atom  AN      X      Y      Z        X      Y      Z        X      Y      Z
     1   6    -0.01  -0.04   0.00    -0.01  -0.05  -0.02    -0.02  -0.03  -0.00
     2   6    -0.02   0.02  -0.15    -0.01  -0.08   0.15    -0.01  -0.05   0.04
     3   6     0.02  -0.05   0.05     0.04  -0.01  -0.04     0.00  -0.03  -0.03
     4   6     0.02  -0.01   0.02     0.06   0.01  -0.05     0.01  -0.00  -0.00
     5   6    -0.00   0.04  -0.08     0.07  -0.03   0.08    -0.00   0.01   0.02
     6   7    -0.00  -0.04   0.10    -0.02   0.00  -0.09    -0.02   0.02  -0.04
     7   6    -0.01   0.05  -0.07    -0.04   0.07   0.07    -0.01   0.02   0.03
     8   6    -0.00  -0.01  -0.03     0.03   0.09   0.03     0.02   0.04   0.02
     9   6    -0.03  -0.06  -0.01    -0.03  -0.02  -0.01    -0.00  -0.00  -0.00
    10   6     0.01  -0.09  -0.10    -0.07  -0.02  -0.11    -0.02  -0.00  -0.03
    11   7    -0.10   0.08   0.08    -0.07   0.07  -0.04    -0.02   0.02  -0.01
    12   8     0.01   0.01  -0.01     0.01  -0.01   0.01    -0.03   0.00  -0.01
    13   1    -0.02  -0.02  -0.44    -0.07   0.01  -0.23    -0.02   0.01  -0.06
    14   1     0.00  -0.02   0.01    -0.04   0.02  -0.01    -0.01   0.01  -0.00
    15   1    -0.05  -0.09   0.02     0.00  -0.13   0.01     0.01  -0.04   0.00
    16   1    -0.03  -0.03  -0.04     0.09   0.22   0.03     0.04   0.09   0.01
    17   1     0.07  -0.00   0.02     0.12   0.02  -0.07     0.04   0.01  -0.03
    18   1     0.26  -0.34  -0.03     0.00  -0.14  -0.09     0.01  -0.03  -0.02
    19   1     0.07  -0.03  -0.06    -0.13   0.15   0.06    -0.03   0.05   0.03
    20   1    -0.03  -0.08   0.09    -0.02   0.00  -0.16    -0.03  -0.03  -0.00
    21   1    -0.01   0.09  -0.19     0.08  -0.03   0.19     0.00   0.01   0.06
    22   1     0.05  -0.03   0.08     0.04   0.05  -0.15     0.04   0.01  -0.01
    23   1     0.05  -0.12   0.21     0.07   0.00  -0.20     0.02  -0.03  -0.09
    24   6     0.08   0.11   0.15     0.05  -0.03   0.06     0.01  -0.01   0.01
    25   1    -0.12   0.10   0.08    -0.06   0.08  -0.03    -0.04   0.02  -0.04
    26   1     0.01  -0.03   0.02    -0.01   0.20  -0.07    -0.02  -0.33   0.18
    27   1     0.07   0.02  -0.01    -0.16  -0.10  -0.01     0.31   0.16   0.02
    28   8    -0.00   0.00  -0.01    -0.01   0.03  -0.00     0.03  -0.03   0.01
    29   1    -0.01   0.03   0.11    -0.31  -0.15  -0.11     0.50   0.20   0.04
    30   1    -0.01   0.01  -0.01     0.26  -0.26   0.15    -0.40   0.41  -0.20
    31   1     0.18  -0.00   0.01     0.11  -0.20  -0.04     0.02  -0.06  -0.01
    32   1     0.11   0.23   0.29     0.08  -0.05   0.10     0.02  -0.03   0.02
    33   1     0.18   0.14   0.17     0.10   0.03   0.23     0.02   0.00   0.07
                     22                     23                     24
                      A                      A                      A
 Frequencies --    571.2371               573.3952               619.4991
 Red. masses --      1.8762                 1.1552                 1.8669
 Frc consts  --      0.3607                 0.2238                 0.4221
 IR Inten    --     17.3434                42.3435                24.9404
  Atom  AN      X      Y      Z        X      Y      Z        X      Y      Z
     1   6     0.01  -0.00  -0.03    -0.00   0.00  -0.01    -0.01  -0.01  -0.03
     2   6    -0.00   0.03  -0.09    -0.00   0.01   0.02    -0.04   0.03  -0.04
     3   6    -0.02  -0.01  -0.01     0.01   0.01   0.02     0.01   0.04  -0.02
     4   6    -0.01   0.00   0.03    -0.00   0.01  -0.02     0.02  -0.00   0.03
     5   6    -0.00   0.02  -0.03     0.01  -0.01   0.02     0.04  -0.00  -0.05
     6   7     0.02  -0.00   0.05    -0.00  -0.01  -0.01     0.00  -0.04   0.01
     7   6     0.02   0.02   0.11    -0.01  -0.01  -0.02    -0.05  -0.05   0.11
     8   6     0.01   0.14   0.05     0.00  -0.05  -0.01     0.05  -0.01   0.03
     9   6    -0.09   0.00  -0.00     0.04   0.01   0.00     0.10   0.05  -0.01
    10   6     0.00  -0.04   0.02     0.01   0.02  -0.01    -0.04   0.07  -0.09
    11   7     0.03  -0.07   0.00    -0.01   0.01   0.00    -0.09  -0.06   0.01
    12   8    -0.01  -0.01  -0.01    -0.04  -0.03  -0.02     0.01   0.02   0.00
    13   1     0.11   0.06  -0.04    -0.03  -0.01   0.02    -0.11  -0.02   0.08
    14   1    -0.31  -0.06  -0.14     0.13   0.04   0.06     0.31   0.19   0.13
    15   1     0.14  -0.03  -0.19    -0.05   0.02   0.08    -0.10  -0.08   0.21
    16   1     0.07   0.49   0.00    -0.01  -0.15   0.00     0.16   0.04   0.07
    17   1     0.14  -0.04  -0.26    -0.05   0.01   0.08    -0.08  -0.03  -0.05
    18   1     0.02  -0.14   0.02     0.01   0.08  -0.00    -0.06   0.26  -0.08
    19   1     0.14   0.03   0.13    -0.04  -0.02  -0.03    -0.01  -0.04   0.12
    20   1    -0.00  -0.05   0.07     0.01  -0.00   0.01     0.02  -0.03   0.04
    21   1    -0.01   0.01  -0.06     0.02  -0.02   0.05     0.04   0.02  -0.05
    22   1     0.01  -0.02   0.12    -0.02   0.01  -0.05    -0.02  -0.06   0.13
    23   1    -0.01  -0.04   0.10     0.00   0.02   0.01     0.04  -0.00   0.05
    24   6     0.01  -0.06  -0.06    -0.00   0.01   0.01     0.01  -0.03  -0.02
    25   1     0.01  -0.10  -0.03    -0.04   0.01  -0.02    -0.03  -0.12   0.04
    26   1    -0.11   0.02   0.27    -0.23   0.03   0.57     0.07  -0.13  -0.12
    27   1     0.28   0.14   0.02     0.57   0.26   0.04    -0.02  -0.01  -0.01
    28   8    -0.01   0.01  -0.02    -0.00   0.02  -0.02    -0.01   0.00  -0.02
    29   1    -0.17  -0.03   0.13    -0.21  -0.09  -0.09    -0.09   0.11   0.65
    30   1     0.13  -0.13   0.04     0.17  -0.16   0.08     0.03  -0.04  -0.02
    31   1    -0.02  -0.04  -0.02     0.00   0.01   0.01     0.06  -0.06  -0.10
    32   1    -0.00  -0.06  -0.08     0.00   0.02   0.02     0.04   0.03   0.08
    33   1     0.01  -0.07  -0.08    -0.01   0.01   0.01     0.04  -0.03  -0.03
                     25                     26                     27
                      A                      A                      A
[...]
 0.00033153,0.00040074,-0.00212500,-0.00127126,0.00069897,0.47890340,0.
 00158894,-0.00234319,-0.00012195,-0.00020743,-0.00007675,-0.00076273,-
 0.00010762,-0.00027512,-0.00017524,-0.00007857,-0.00106327,-0.00109262
 ,-0.00430335,0.00072717,0.00139460,0.00065328,-0.01675051,0.00466277,0
 .00072959,-0.00091961,0.00005656,-0.00015282,0.00030241,0.00005961,-0.
 00004040,-0.00013350,-0.00009347,0.00005304,0.00003663,0.00019422,0.00
 000441,0.00056468,-0.00028289,-0.00110749,0.00705706,-0.00236392,-0.00
 007421,0.00002809,-0.00001690,-0.00001884,0.00004450,0.00001896,-0.000
 05842,0.00003939,-0.00002466,0.00006458,-0.00000730,0.00009387,0.00002
 928,0.00003884,-0.00001325,-0.00000629,-0.00006433,-0.00000462,-0.0002
 3292,0.00012360,0.00001752,-0.00002052,-0.00079373,0.00013156,0.000285
 71,-0.00022647,0.00024070,-0.00028331,-0.00029525,-0.00013515,-0.00000
 039,-0.00013947,0.00007769,0.00011340,-0.00019329,-0.00019050,-0.00013
 791,-0.00090102,0.00074207,0.00011787,-0.01326563,0.00266067,-0.001550
 68,-0.00057663,-0.00040360,0.09134019,0.66475525,0.00020733,-0.0002430
 6,-0.00046767,-0.00018755,0.00028710,0.00011560,0.00013530,0.00017126,
 0.00007459,-0.00013133,0.00058897,0.00007864,0.00143785,0.00023158,-0.
 00027607,-0.00053596,0.00373120,0.00262783,-0.00033844,0.00046577,-0.0
 0004036,0.00003927,-0.00013563,-0.00003372,0.00001959,0.00007399,0.000
 04990,0.00009871,0.00000339,-0.00007812,-0.00047641,-0.00067328,0.0006
 7447,-0.00960865,-0.00221151,0.00114459,0.00003048,-0.00000843,-0.0000
 1677,-0.00001210,-0.00004447,0.00002146,0.00002399,-0.00001803,0.00000
 233,-0.00000828,0.00004036,-0.00000021,-0.00001121,-0.00002596,0.00000
 615,0.00008481,0.00010724,0.00008446,0.00003059,-0.00011428,0.00002027
 ,-0.00068378,-0.00004915,-0.00024929,-0.00013734,0.00006726,-0.0000282
 0,0.00009335,0.00012821,-0.00000073,-0.00001703,0.00007307,0.00001297,
 -0.00016172,-0.00013739,-0.00039325,0.00105534,0.00167056,-0.00159747,
 0.00088812,0.00162369,-0.00674444,0.00069432,-0.00046475,0.00052863,0.
 02132413,-0.11938160,0.03655009,-0.00179754,-0.00477991,-0.00032219,-0
 .00125954,0.00017844,0.00027848,-0.00018197,0.00038719,0.00020553,0.00
 022506,0.00046227,0.00051241,0.00131767,0.00042155,-0.00048237,-0.0061
 1502,0.00143575,0.00046454,-0.00022961,-0.00007928,-0.00012795,-0.0000
 1735,-0.00003725,0.00000197,0.00001161,0.00001124,0.00002738,-0.000049
 99,-0.00000531,-0.00007206,0.00005710,-0.00008108,0.00007867,-0.001814
 42,-0.00156132,-0.00068038,0.00001308,-0.00000030,0.00000229,-0.000001
 76,-0.00000910,-0.00000495,0.00001075,0.00000157,0.00000481,-0.0000078
 5,0.00000460,-0.00000603,-0.00000309,-0.00000295,0.00000315,0.00000573
 ,0.00001598,0.00000428,0.00004959,-0.00003148,0.00000265,-0.00209391,-
 0.00053416,0.00109090,-0.00005468,0.00033533,-0.00010536,0.00005467,0.
 00003340,0.00008102,-0.00005156,0.00007240,0.00000415,-0.00004516,0.00
 003584,-0.00003666,-0.00013558,0.00016313,-0.00019379,0.00120361,0.004
 64419,0.00094127,0.00000879,-0.00004744,-0.00004221,-0.13612581,0.1854
 6646,-0.04462109,0.13419158,-0.00639869,0.00112349,0.00261594,0.001731
 34,-0.00016520,0.00107717,0.00015229,0.00026649,0.00000120,0.00028980,
 0.00135901,0.00147806,0.00540546,-0.00196680,-0.00147157,-0.00301970,0
 .00450650,-0.00479751,-0.00081286,0.00138647,0.00008318,0.00022821,-0.
 00036992,-0.00006581,0.00003759,0.00017669,0.00009929,0.00006818,-0.00
 006141,-0.00019085,-0.00018808,-0.00085440,0.00046741,-0.00541869,-0.0
 0290019,-0.00093860,0.00008486,-0.00004373,0.00001736,0.00002668,-0.00
 007069,-0.00000953,0.00006676,-0.00006066,0.00002689,-0.00007565,0.000
 02402,-0.00011923,-0.00003576,-0.00005908,0.00001795,0.00003502,0.0001
 0886,0.00003600,0.00027079,-0.00017235,-0.00001781,0.00092954,-0.00005
 261,-0.00116150,-0.00042286,0.00042220,-0.00039633,0.00037568,0.000474
 20,0.00013349,0.00005119,0.00010936,-0.00017253,-0.00005352,0.00012803
 ,0.00016616,0.00084020,0.00167941,-0.00122931,0.00837041,0.00315664,0.
 00298141,0.00023504,-0.00004967,0.00028616,0.13380072,-0.37201945,0.07
 479664,-0.15146298,0.38350584,0.00064500,0.00101739,0.00075261,-0.0001
 2319,-0.00043483,0.00032803,-0.00004767,-0.00002562,-0.00008395,0.0004
 4138,-0.00097110,0.00026473,-0.00219394,-0.00116389,0.00007946,0.00154
 565,-0.00165996,-0.00601119,0.00012825,-0.00022079,0.00000521,-0.00003
 263,0.00008501,0.00003626,-0.00001339,-0.00003305,-0.00003690,0.000012
 80,-0.00000166,0.00007410,0.00004784,0.00015152,-0.00014227,0.00004866
 ,-0.00060271,-0.00029249,-0.00001489,0.00000531,-0.00000323,0.00000682
 ,0.00001279,-0.00000470,-0.00001682,0.00000825,-0.00000290,0.00000628,
 -0.00001512,-0.00000158,0.00000705,0.00000555,-0.00000665,-0.00002021,
 -0.00002400,-0.00002427,-0.00000778,0.00002814,-0.00000265,0.00121294,
 0.00054963,-0.00008009,0.00017512,-0.00002826,-0.00019796,-0.00013625,
 -0.00018798,-0.00002090,-0.00000794,-0.00003917,-0.00007002,0.00007988
 ,-0.00000146,0.00009969,-0.00028190,-0.00037390,0.00039073,-0.00086177
 ,0.00242547,-0.00024678,-0.00003842,0.00016040,-0.00001117,-0.03411728
 ,0.07707434,-0.02474062,0.03537828,-0.07766364,0.03165080,-0.00056172,
 0.00014487,0.00030067,0.00005367,-0.00008947,0.00006745,-0.00001791,0.
 00005895,-0.00002159,0.00002220,0.00012406,0.00017924,0.00053988,-0.00
 011859,-0.00013816,-0.00021190,0.00223253,-0.00063099,-0.00001633,0.00
 003105,0.00001817,0.00000990,-0.00000929,-0.00000493,-0.00000205,0.000
 00694,0.00000710,-0.00000845,-0.00000764,-0.00001715,0.00001810,-0.000
 00571,0.00001887,-0.00132733,0.00061176,-0.00152692,-0.00000283,-0.000
 00256,0.00000131,-0.00000174,-0.00000540,-0.00000107,0.00000387,-0.000
 00160,0.00000254,-0.00000368,-0.00000095,-0.00000424,-0.00000243,-0.00
 000013,0.00000017,0.00000702,0.00000611,0.00000596,0.00000683,-0.00001
 347,0.00000099,-0.00003156,-0.00015731,-0.00021694,-0.00003618,0.00007
 059,-0.00004487,0.00003543,0.00004023,0.00002021,-0.00000041,0.0000006
 6,-0.00001199,0.00000776,-0.00002637,-0.00002481,0.00004202,0.00007205
 ,-0.00005522,0.00156888,-0.00175873,0.00313681,-0.00064892,-0.00032009
 ,-0.00012691,-0.32635108,-0.27190528,0.03079917,0.01280637,0.01466810,
 -0.00178598,0.31412853,0.00061566,-0.00010035,-0.00017159,0.00000768,0
 .00028521,0.00013094,0.00014440,-0.00009555,-0.00001225,-0.00006360,-0
 .00010650,-0.00012256,-0.00028659,-0.00011387,0.00022365,0.00054118,-0
 .00183462,0.00024944,-0.00005777,-0.00000622,0.00002324,0.00000820,-0.
 00002494,-0.00000978,0.00000890,0.00000619,0.00001328,-0.00007128,0.00
 000348,-0.00004115,0.00014939,0.00006004,-0.00008747,0.00309457,0.0000
 0100,0.00135057,0.00000758,0.00000127,0.00000122,0.00000142,0.00000117
 ,-0.00000847,0.00000753,0.00000196,0.00000451,-0.00000709,-0.00000354,
 -0.00000924,-0.00000142,0.00000083,0.00000110,-0.00001478,-0.00000863,
 -0.00001080,0.00001356,-0.00000312,-0.00000640,-0.00012433,0.00004201,
 -0.00003764,0.00001879,-0.00009859,0.00005167,-0.00001859,0.00000162,-
 0.00003860,0.00000712,0.00002064,0.00000314,-0.00001872,0.00006105,0.0
 0003569,-0.00023954,-0.00023354,0.00018385,-0.00427958,0.00034467,-0.0
 0273943,0.00016827,0.00031993,0.00007706,-0.22091299,-0.26353851,0.039
 55311,-0.03504974,-0.01967675,0.00192280,0.25637051,0.28467407,0.00020
 204,0.00005804,-0.00002038,-0.00006289,0.00016588,0.00007235,0.0000609
 4,-0.00000843,0.00001084,-0.00005990,-0.00001839,-0.00000492,0.0000251
 6,0.00014379,0.00005800,-0.00002730,0.00026987,0.00008399,-0.00004106,
 0.00003481,0.00001027,0.00000290,-0.00000831,0.00001078,-0.00000019,0.
 00000446,0.00000108,0.00003116,0.00000102,0.00002050,-0.00002672,-0.00
 005003,-0.00000088,-0.00289250,0.00030028,-0.00134681,0.00000596,-0.00
 000360,0.00000557,0.00000544,-0.00000109,-0.00000175,-0.00000249,-0.00
 000416,0.00000063,-0.00000274,-0.00000283,-0.00000585,0.00000072,-0.00
 000162,-0.00000043,0.00000199,0.00000273,-0.00000014,0.00001630,-0.000
 00602,-0.00000310,-0.00023013,-0.00003025,0.00007831,0.00001145,-0.000
 01567,0.00004520,0.00000283,-0.00000310,0.00001376,-0.00000315,0.00001
 232,0.00000698,0.00000309,0.00001848,0.00003736,0.00000855,0.00007710,
 -0.00006758,0.00348122,-0.00190136,0.00165722,-0.00058553,-0.00013387,
 0.00009396,0.02248448,0.03777119,-0.00742161,0.00751908,0.00389748,-0.
 00163779,-0.02995540,-0.04058735,0.00827996,-0.00110803,0.00017636,0.0
 0040899,0.00024015,-0.00030827,-0.00006898,-0.00007248,-0.00001571,-0.
 00003558,0.00003947,0.00000371,-0.00002340,-0.00007408,-0.00005948,-0.
 00002438,-0.00005166,0.00012824,0.00008881,0.00104924,0.00015112,-0.00
 005481,-0.00030294,-0.00014644,0.00025410,0.00025833,0.00018967,0.0002
 7559,-0.00038915,0.00127383,0.00086434,0.00732906,0.00108069,0.0077741
 0,-0.00005467,0.00002414,-0.00003007,0.00026749,-0.00033722,0.00014889
 ,0.00008090,0.00011481,-0.00002904,0.00007692,0.00008851,-0.00008503,0
 .00013563,0.00005489,0.00009592,0.00001581,-0.00000755,-0.00000263,0.0
 0038070,-0.00018237,0.00020486,-0.00012928,-0.00056957,0.00015116,-0.0
 0170497,0.00069389,0.00116523,0.00000076,0.00000618,-0.00000075,-0.000
 00220,-0.00000105,0.00000264,0.00001839,-0.00002331,-0.00000500,-0.234
 40425,0.01384395,-0.13817501,0.00035889,-0.00037750,-0.00039587,0.0000
 2986,-0.00001326,0.00000598,0.00000684,0.00000779,-0.00000685,0.000052
 96,0.00001569,-0.00008029,-0.00000961,0.00003758,0.00002068,-0.0000076
 5,-0.00001885,0.00000625,0.24623591,0.00019971,-0.00011489,-0.00017258
 ,0.00022967,0.00007502,-0.00003997,-0.00000316,-0.00012323,-0.00000209
 ,-0.00010447,-0.00003325,-0.00000746,-0.00001966,0.00013040,0.00002770
 ,0.00005212,-0.00014153,0.00008479,-0.00121780,0.00089052,-0.00112979,
 -0.00007136,0.00016170,0.00016565,-0.00028170,0.00016821,0.00000694,0.
 00276227,-0.00113319,-0.00275609,-0.01713086,-0.00273843,-0.01585285,-
 0.00009689,0.00002723,-0.00029372,-0.00024624,0.00012252,0.00000400,0.
 00001825,-0.00001238,0.00003999,-0.00006250,-0.00007431,0.00010121,0.0
 0005115,0.00009105,0.00007042,0.00002102,-0.00000468,-0.00000844,-0.00
 092705,-0.00017485,-0.00058153,-0.00051444,-0.00088862,0.00000542,0.00
 028754,0.00045640,-0.00022241,-0.00000006,0.00001084,-0.00000802,-0.00
 001347,0.00000406,0.,0.00000215,0.00000714,-0.00000533,0.02009133,-0.0
 5060246,0.01511063,-0.00011053,0.00009503,0.00091768,-0.00008002,0.000
 11406,0.00014443,0.00010880,-0.00003827,-0.00002004,0.00009689,-0.0001
 8497,-0.00009466,0.00001002,0.00021915,-0.00001002,-0.00001809,-0.0000
 0288,0.00003047,-0.01785683,0.05167480,0.00017999,-0.00137718,-0.00046
 043,-0.00007832,0.00021938,0.00013420,0.00021874,-0.00004943,-0.000032
 12,-0.00015962,0.00001286,0.00001494,0.00000356,0.00014774,0.00002145,
 -0.00027879,0.00039548,0.00024524,-0.00043082,0.00196623,0.00000243,-0
 .00025082,-0.00005053,0.00021121,-0.00022115,0.00012670,-0.00064017,0.
 00314040,-0.00205387,-0.00264833,-0.02314648,-0.00096158,-0.02080780,0
 .00037711,0.00013775,0.00032508,0.00025787,-0.00010833,0.00002480,-0.0
 0007050,-0.00016431,0.00009214,-0.00007452,-0.00024326,0.00015910,0.00
 001572,0.00006394,0.00002871,0.00003941,-0.00003277,0.00000807,-0.0011
 1018,-0.00035881,-0.00066521,0.00012989,-0.00022059,0.00055389,0.00113
 246,0.00025062,-0.00007797,-0.00002034,0.00004167,0.00001276,0.0000062
 2,0.00000812,0.00000952,-0.00002493,0.00005352,0.00002394,-0.12805820,
 0.00881745,-0.14504027,-0.00100827,-0.00002454,0.00034468,0.00003923,0
 .00004458,-0.00025548,-0.00008736,0.00002966,0.00000077,-0.00010984,-0
 .00010221,0.00009077,0.00006969,0.00005516,-0.00003967,0.00000902,0.00
 003679,0.00001257,0.14312690,-0.00571414,0.16108805,0.00007898,-0.0006
 1749,-0.00014322,-0.00020486,0.00027526,-0.00021354,0.00011662,0.00002
 014,-0.00004704,-0.00004883,0.00000298,0.00004467,0.00002197,0.0000479
 4,-0.00000066,-0.00007906,0.00016470,0.00013315,-0.00005409,-0.0006703
 1,0.00052987,0.00013755,-0.00000138,-0.00021018,0.00027786,-0.00001146
 ,0.00020836,0.00045083,0.00017420,-0.00099263,-0.00298450,-0.00117313,
 0.00221520,0.00000837,-0.00014167,0.00010280,0.00023076,0.00014905,-0.
 00003968,0.00004798,-0.00020988,-0.00025792,0.00002798,0.00012446,-0.0
 0007827,-0.00006713,-0.00009577,-0.00007683,0.00002214,0.00005507,0.00
 003536,-0.00000132,-0.00003526,-0.00004188,-0.00028478,0.00086809,-0.0
 0026398,0.00022586,0.00021325,-0.00001343,-0.00000729,0.00001836,-0.00
 000022,0.00000864,0.00000117,0.00000631,-0.00001964,0.00002600,0.00001
 268,-0.23367279,-0.08056926,0.10666138,0.00099111,0.00082896,-0.000515
 84,0.00005539,-0.00000985,-0.00004431,-0.00005294,-0.00000353,0.000004
 68,-0.00005539,-0.00001250,0.00002281,0.00003102,-0.00002077,-0.000016
 95,0.00000493,0.00001293,-0.00000369,-0.01648131,-0.00903770,0.0125179
 7,0.24556337,0.00004041,-0.00012856,0.00001543,0.00021286,-0.00023318,
 0.00011147,-0.00009634,0.00010618,0.00004754,0.00009035,0.00004630,-0.
 00000495,0.00001619,-0.00009395,-0.00002489,-0.00008168,0.00008114,-0.
 00003417,0.00056720,0.00218980,-0.00110059,0.00005727,-0.00004773,-0.0
 0001080,0.00034008,0.00008886,-0.00012365,0.00045796,0.00074756,0.0008
 0807,0.02016174,0.00470957,-0.01555264,0.00016655,0.00065754,0.0001903
 7,-0.00013841,-0.00009632,0.00052501,-0.00036766,-0.00029542,-0.000168
 78,-0.00008442,0.00005280,0.00014011,0.00000916,0.00000645,0.00007984,
 -0.00000099,-0.00001134,0.00001636,0.00009212,-0.00005928,0.00008320,0
 .00028910,-0.00040495,0.00025255,-0.00002638,-0.00007989,0.00006265,-0
 .00000119,-0.00000313,0.00000682,0.00000072,0.00000201,0.00000172,0.00
 000628,-0.00000263,-0.00000718,-0.08702529,-0.08740653,0.05073381,-0.0
 0041273,-0.00331830,-0.00254412,0.00013247,0.00003374,-0.00010820,0.00
 001232,0.00005891,-0.00005084,-0.00006010,0.00004180,0.00001757,0.0000
 0282,-0.00005932,0.00000334,0.00001343,0.00000490,-0.00001196,0.003186
 28,0.00057239,-0.00092827,0.08695019,0.08916546,-0.00002476,-0.0003133
 8,-0.00005564,-0.00008248,-0.00006941,0.00028835,0.00002647,0.00004872
 ,0.00007218,0.00000051,0.00002321,-0.00003848,-0.00000443,0.00001042,-
 0.00001091,-0.00013457,0.00010275,0.00013552,-0.00095610,0.00215370,-0
 .00026653,0.00013540,-0.00012795,0.00013797,0.00019285,-0.00026166,-0.
 00039482,0.00206764,0.00053123,0.00132848,0.02630178,0.00725659,-0.021
 97352,0.00058633,0.00061598,-0.00017662,-0.00041805,0.00045479,-0.0005
 0824,-0.00032502,-0.00042381,0.00013175,-0.00013128,0.00003260,0.00015
 934,-0.00006273,0.00003358,0.00001467,-0.00006932,-0.00000720,-0.00004
 768,-0.00031099,0.00029592,0.00027195,-0.00019745,-0.00020472,0.000606
 18,0.00023204,0.00007909,-0.00013106,-0.00000665,0.00001123,0.00000026
 ,0.00000466,0.00000175,-0.00000168,0.00000282,0.00000017,0.00001646,0.
 09858533,0.04390747,-0.10504032,-0.00120033,-0.00503755,-0.00253459,-0
 .00019704,0.00006701,-0.00023262,0.00008763,0.00006962,0.00006549,0.00
 005360,-0.00001602,0.00010614,0.00002211,0.00002970,-0.00003271,0.0000
 0743,0.00000067,0.00000386,-0.01538691,-0.00687449,0.01105029,-0.11521
 240,-0.04458617,0.12023986,-0.00004066,-0.00015500,0.00005919,0.000147
 16,-0.00009136,-0.00032088,-0.00001861,-0.00000687,-0.00005745,-0.0000
 3429,-0.00003471,0.00001828,-0.00004020,0.00005849,-0.00000982,-0.0000
 3267,-0.00009926,0.00008867,0.00123649,0.00039574,0.00155175,-0.000393
 79,0.00033796,-0.00005747,-0.00039986,-0.00018996,0.00009355,0.0001608
 1,-0.00095305,0.00005537,-0.00243495,0.00704977,-0.00154228,0.00015490
 ,-0.00041076,-0.00049344,-0.00033612,-0.00055376,-0.00057504,0.0001223
 1,0.00003712,-0.00014966,0.00007706,-0.00004244,-0.00008066,0.00009501
 ,0.00003544,0.00003832,0.00004115,0.00005434,0.00005214,-0.00001150,0.
 00010642,0.00007561,-0.00012940,-0.00000818,0.00000288,-0.00001712,0.0
 0026143,-0.00007330,-0.00000071,0.00000836,-0.00000706,-0.00000334,-0.
 00000329,0.00000912,0.00000775,-0.00001206,-0.00001183,-0.05520816,0.0
 3585918,-0.01086746,0.00023358,0.00113474,-0.00006302,-0.00039321,0.00
 012669,0.00002284,0.00013603,-0.00003633,0.00008138,0.00021927,-0.0001
 6350,0.00002600,0.00000783,0.00020410,-0.00003964,-0.00002321,-0.00001
 281,0.00002413,-0.00178503,0.02386188,-0.00613403,0.00571258,-0.024510
 33,0.00641389,0.05295089,-0.00002914,-0.00010790,-0.00001319,-0.000266
 21,-0.00046886,-0.00010207,0.00020386,0.00005683,0.00000270,-0.0000084
 3,-0.00003436,-0.00001337,0.00002257,0.00000851,-0.00000221,0.00004583
 ,0.00007375,0.00000556,-0.00017208,0.00028410,-0.00216630,0.00055105,-
 0.00026174,0.00016177,-0.00028917,-0.00000991,0.00014060,0.00127735,-0
 .00012672,0.00094240,0.00352450,-0.01824721,0.00269086,-0.00024979,0.0
 0017546,0.00021211,-0.00081287,0.00026887,-0.00036030,-0.00000908,0.00
 001333,-0.00003219,-0.00000429,0.00003790,-0.00002509,-0.00006908,-0.0
 0007442,-0.00006980,-0.00013947,-0.00003418,-0.00012179,-0.00016351,0.
 00024305,0.00006688,0.00009119,0.00016726,-0.00044556,0.00006820,-0.00
 002462,-0.00001968,0.00000011,0.00000308,0.00000037,0.00002217,0.00000
 050,-0.00000281,-0.00001683,0.00001381,0.00000456,0.03723002,-0.300414
 22,0.07672499,-0.00017689,-0.00053249,0.00033005,0.00016014,0.00003712
 ,0.00003715,0.00002506,0.00009598,-0.00000230,-0.00007347,0.00000859,-
 0.00002879,0.00000011,-0.00006412,0.00000723,-0.00001117,0.00001758,0.
 00000010,-0.00115993,0.00144743,-0.00001784,0.00267722,-0.00632487,0.0
 0219617,-0.04224798,0.32377248,-0.00008577,-0.00029555,-0.00009307,-0.
 00015717,-0.00070606,0.00018069,0.00026801,0.00004340,0.00003041,-0.00
 002085,-0.00003913,-0.00005974,0.00001217,0.00001752,-0.00000625,0.000
 04513,0.00010530,0.00001217,-0.00002985,-0.00034905,-0.00490477,0.0001
 3216,-0.00125955,0.00079051,0.00021779,-0.00004739,-0.00004512,0.00143
 954,-0.00077724,0.00129569,0.00598633,-0.03488428,0.00330212,-0.000489
 00,0.00027086,-0.00022818,-0.00044948,-0.00015613,-0.00016680,-0.00014
 024,0.00003752,0.00002441,-0.00007033,-0.00000921,0.00004183,0.0000599
 2,0.00004561,-0.00000309,-0.00022386,-0.00026281,-0.00028275,0.0001166
 1,0.00005921,0.00006032,-0.00002861,-0.00025867,0.00027773,0.00004906,
 0.00016694,0.00003539,0.00000085,0.00000709,0.00000634,0.00002594,-0.0
 0000063,-0.00000328,-0.00002203,0.00001265,0.00001285,-0.01391364,0.08
 996257,-0.07699052,-0.00029051,-0.00084934,0.00162061,0.00022617,0.000
 05859,0.00025984,0.00010539,-0.00001020,-0.00011875,-0.00011565,-0.000
 01500,-0.00010034,0.00000235,-0.00003242,0.00000889,-0.00000794,0.0000
 2000,0.00000806,-0.00018984,0.01708429,-0.00378718,-0.00432256,0.01216
 134,-0.00318333,0.01186989,-0.08010022,0.08200532\\0.00000301,0.000001
 17,-0.00000057,-0.00000144,-0.00000148,-0.00000507,0.00000056,0.000000
 50,0.00000103,-0.00000016,-0.00000055,0.00000012,-0.00000130,-0.000000
 32,-0.00000006,0.00000230,0.00000552,-0.00000095,0.00000073,0.00000072
 ,0.00000405,0.00000034,0.00000073,0.,0.00000063,-0.00000008,0.00000255
 ,0.00000214,-0.00000304,-0.00000275,-0.00000118,0.00000352,0.00000201,
 -0.00000215,-0.00000813,-0.00000310,-0.00000035,-0.00000018,-0.0000002
 1,0.00000014,0.00000031,0.00000075,-0.00000060,-0.00000041,0.00000048,
 0.00000045,-0.00000027,0.00000040,-0.00000006,-0.00000036,0.00000100,-
 0.00000039,-0.00000016,-0.00000005,-0.00000027,0.00000008,0.00000024,-
 0.00000015,0.00000238,0.00000032,0.00000006,-0.00000010,-0.00000029,-0
 .00000017,-0.00000035,0.00000040,-0.00000058,-0.00000030,0.00000046,-0
 .00000015,0.00000387,0.00000332,-0.00000266,0.00000121,0.00000030,-0.0
 0000276,0.00000273,-0.00000203,0.00000441,0.00000196,0.00000266,0.0000
 0157,-0.00000929,0.00000018,-0.00000615,0.00000232,0.00000064,0.000000
 89,0.00000056,-0.00000137,0.00000094,-0.00000055,-0.00000218,0.0000015
 3,0.00000054,-0.00000206,0.00000083,-0.00000256,-0.00000026\\\@


 I FIND THAT THE THREE TRULY GREAT TIMES FOR THINKING THOUGHTS
 ARE WHEN I AM STANDING IN THE SHOWER, SITTING ON THE JOHN, OR WALKING.

                                    -- COLIN FLETCHER
 Job cpu time:       0 days 20 hours  5 minutes  0.4 seconds.
 Elapsed time:       0 days  0 hours 43 minutes  6.5 seconds.
 File lengths (MBytes):  RWF=    900 Int=      0 D2E=      0 Chk=     24 Scr=      8
 Normal termination of Gaussian 16 at Wed Aug 26 19:53:25 2020.
