 Entering Gaussian System, Link 0=g16
 Input=NicPySs2h2.gjf
 Output=NicPySs2h2.log
 Initial command:
 /sw/contrib/gaussian/g16/A03/g16/l1.exe "/gscratch/scrubbed/gds001/Gau-752.inp" -scrdir="/gscratch/scrubbed/gds001/"
 Entering Link 1 = /sw/contrib/gaussian/g16/A03/g16/l1.exe PID=       753.
  
 Copyright (c) 1988,1990,1992,1993,1995,1998,2003,2009,2016,
            Gaussian, Inc.  All Rights Reserved.
  
 This is part of the Gaussian(R) 16 program.  It is based on
 the Gaussian(R) 09 system (copyright 2009, Gaussian, Inc.),
 the Gaussian(R) 03 system (copyright 2003, Gaussian, Inc.),
 the Gaussian(R) 98 system (copyright 1998, Gaussian, Inc.),
 the Gaussian(R) 94 system (copyright 1995, Gaussian, Inc.),
 the Gaussian 92(TM) system (copyright 1992, Gaussian, Inc.),
 the Gaussian 90(TM) system (copyright 1990, Gaussian, Inc.),
 the Gaussian 88(TM) system (copyright 1988, Gaussian, Inc.),
 the Gaussian 86(TM) system (copyright 1986, Carnegie Mellon
 University), and the Gaussian 82(TM) system (copyright 1983,
 Carnegie Mellon University). Gaussian is a federally registered
 trademark of Gaussian, Inc.
  
 This software contains proprietary and confidential information,
 including trade secrets, belonging to Gaussian, Inc.
  
 This software is provided under written license and may be
 used, copied, transmitted, or stored only in accord with that
 written license.
  
 The following legend is applicable only to US Government
 contracts under FAR:
  
                    RESTRICTED RIGHTS LEGEND
  
 Use, reproduction and disclosure by the US Government is
 subject to restrictions as set forth in subparagraphs (a)
 and (c) of the Commercial Computer Software - Restricted
 Rights clause in FAR 52.227-19.
  
 Gaussian, Inc.
 340 Quinnipiac St., Bldg. 40, Wallingford CT 06492
  
  
 ---------------------------------------------------------------
 Warning -- This program may not be used in any manner that
 competes with the business of Gaussian, Inc. or will provide
 assistance to any competitor of Gaussian, Inc.  The licensee
 of this program is prohibited from giving any competitor of
 Gaussian, Inc. access to this program.  By using this program,
 the user acknowledges that Gaussian, Inc. is engaged in the
 business of creating and licensing software in the field of
 computational chemistry and represents and warrants to the
 licensee that it is not a competitor of Gaussian, Inc. and that
 it will not use this program in any manner prohibited above.
 ---------------------------------------------------------------
  

 Cite this work as:
 Gaussian 16, Revision A.03,
 M. J. Frisch, G. W. Trucks, H. B. Schlegel, G. E. Scuseria, 
 M. A. Robb, J. R. Cheeseman, G. Scalmani, V. Barone, 
 G. A. Petersson, H. Nakatsuji, X. Li, M. Caricato, A. V. Marenich, 
 J. Bloino, B. G. Janesko, R. Gomperts, B. Mennucci, H. P. Hratchian, 
 J. V. Ortiz, A. F. Izmaylov, J. L. Sonnenberg, D. Williams-Young, 
 F. Ding, F. Lipparini, F. Egidi, J. Goings, B. Peng, A. Petrone, 
 T. Henderson, D. Ranasinghe, V. G. Zakrzewski, J. Gao, N. Rega, 
 G. Zheng, W. Liang, M. Hada, M. Ehara, K. Toyota, R. Fukuda, 
 J. Hasegawa, M. Ishida, T. Nakajima, Y. Honda, O. Kitao, H. Nakai, 
 T. Vreven, K. Throssell, J. A. Montgomery, Jr., J. E. Peralta, 
 F. Ogliaro, M. J. Bearpark, J. J. Heyd, E. N. Brothers, K. N. Kudin, 
 V. N. Staroverov, T. A. Keith, R. Kobayashi, J. Normand, 
 K. Raghavachari, A. P. Rendell, J. C. Burant, S. S. Iyengar, 
 J. Tomasi, M. Cossi, J. M. Millam, M. Klene, C. Adamo, R. Cammi, 
 J. W. Ochterski, R. L. Martin, K. Morokuma, O. Farkas, 
 J. B. Foresman, and D. J. Fox, Gaussian, Inc., Wallingford CT, 2016.
 
 ******************************************
 Gaussian 16:  ES64L-G16RevA.03 25-Dec-2016
                24-Jan-2023 
 ******************************************
 %nprocshared=28
 Will use up to   28 processors via shared memory.
 %mem=41GB
 -----------------------------
 # wB97XD/aug-cc-pVDZ opt freq
 -----------------------------
 1/18=20,19=15,26=3,38=1/1,3;
 2/9=110,12=2,17=6,18=5,40=1/2;
 3/5=16,7=10,11=2,25=1,30=1,71=1,74=-58/1,2,3;
 4//1;
 5/5=2,38=5/2;
 6/7=2,8=2,9=2,10=2,28=1/1;
 7//1,2,3,16;
 1/18=20,19=15,26=3/3(2);
 2/9=110/2;
 99//99;
 2/9=110/2;
 3/5=16,7=10,11=2,25=1,30=1,71=1,74=-58/1,2,3;
 4/5=5,16=3,69=1/1;
 5/5=2,38=5/2;
 7//1,2,3,16;
 1/18=20,19=15,26=3/3(-5);
 2/9=110/2;
 6/7=2,8=2,9=2,10=2,19=2,28=1/1;
 99/9=1/99;
 ----
 blah
 ----
 Symbolic Z-matrix:
 Charge =  1 Multiplicity = 1
 C                    -1.80065  -1.01585  -1.30989 
 C                    -1.18959  -0.6093    0.05823 
 N                    -2.17415   0.28229   0.64867 
 C                    -3.47426  -0.26925   0.27294 
 C                    -3.29455  -0.63425  -1.19874 
 C                     0.15108   0.07247  -0.08262 
 C                     1.33537  -0.61207   0.12941 
 N                     2.52168   0.00056  -0.04218 
 C                     2.62956   1.28605  -0.41164 
 C                     1.48234   2.02918  -0.62874 
 C                     0.24214   1.4183   -0.46293 
 C                    -2.01069   0.48048   2.07724 
 H                    -1.0501   -1.5187    0.68014 
 H                    -1.31287  -0.4821   -2.13429 
 H                    -1.65293  -2.08726  -1.48569 
 H                    -3.51518   0.23222  -1.83224 
 H                    -3.95619  -1.45081  -1.50518 
 H                    -3.71041  -1.17026   0.87453 
 H                    -4.26447   0.47004   0.44807 
 H                    -0.6835    1.97492  -0.61033 
 H                     3.63726   1.68003  -0.51753 
 H                     3.3887   -0.54326   0.12462 
 H                     1.37321  -1.654     0.44077 
 H                    -1.03625   0.93979   2.29169 
 H                    -2.08175  -0.46971   2.64306 
 H                    -2.78816   1.1603    2.44392 
 H                     1.56582   3.07287  -0.92262 
 O                     4.82501  -1.44205   0.39788 
 H                     5.30947  -1.52241   1.22463 
 H                     5.31998  -1.94983  -0.25164 
 O                     5.75359  -1.7955    2.898 
 H                     5.46666  -2.53988   3.44979 
 H                     6.38836  -1.25296   3.39158 
 
 Add virtual bond connecting atoms O28        and H22        Dist= 3.24D+00.
 Add virtual bond connecting atoms O31        and H29        Dist= 3.31D+00.

 GradGradGradGradGradGradGradGradGradGradGradGradGradGradGradGradGradGrad
 Berny optimization.
 Initialization pass.
                           ----------------------------
                           !    Initial Parameters    !
                           ! (Angstroms and Degrees)  !
 --------------------------                            --------------------------
 ! Name  Definition              Value          Derivative Info.                !
 --------------------------------------------------------------------------------
 ! R1    R(1,2)                  1.5526         estimate D2E/DX2                !
 ! R2    R(1,5)                  1.5459         estimate D2E/DX2                !
 ! R3    R(1,14)                 1.0966         estimate D2E/DX2                !
 ! R4    R(1,15)                 1.0957         estimate D2E/DX2                !
 ! R5    R(2,3)                  1.4536         estimate D2E/DX2                !
 ! R6    R(2,6)                  1.5106         estimate D2E/DX2                !
 ! R7    R(2,13)                 1.1105         estimate D2E/DX2                !
 ! R8    R(3,4)                  1.4614         estimate D2E/DX2                !
 ! R9    R(3,12)                 1.4515         estimate D2E/DX2                !
 ! R10   R(4,5)                  1.5269         estimate D2E/DX2                !
 ! R11   R(4,18)                 1.1088         estimate D2E/DX2                !
 ! R12   R(4,19)                 1.0962         estimate D2E/DX2                !
 ! R13   R(5,16)                 1.0958         estimate D2E/DX2                !
 ! R14   R(5,17)                 1.0947         estimate D2E/DX2                !
 ! R15   R(6,7)                  1.3842         estimate D2E/DX2                !
 ! R16   R(6,11)                 1.4015         estimate D2E/DX2                !
 ! R17   R(7,8)                  1.3461         estimate D2E/DX2                !
 ! R18   R(7,23)                 1.0881         estimate D2E/DX2                !
 ! R19   R(8,9)                  1.3419         estimate D2E/DX2                !
 ! R20   R(8,22)                 1.037          estimate D2E/DX2                !
 ! R21   R(9,10)                 1.384          estimate D2E/DX2                !
 ! R22   R(9,21)                 1.0871         estimate D2E/DX2                !
 ! R23   R(10,11)                1.3924         estimate D2E/DX2                !
 ! R24   R(10,27)                1.0875         estimate D2E/DX2                !
 ! R25   R(11,20)                1.0901         estimate D2E/DX2                !
 ! R26   R(12,24)                1.0984         estimate D2E/DX2                !
 ! R27   R(12,25)                1.1082         estimate D2E/DX2                !
 ! R28   R(12,26)                1.0959         estimate D2E/DX2                !
 ! R29   R(22,28)                1.7162         estimate D2E/DX2                !
 ! R30   R(28,29)                0.9616         estimate D2E/DX2                !
 ! R31   R(28,30)                0.9616         estimate D2E/DX2                !
 ! R32   R(29,31)                1.7527         estimate D2E/DX2                !
 ! R33   R(31,32)                0.97           estimate D2E/DX2                !
 ! R34   R(31,33)                0.97           estimate D2E/DX2                !
 ! A1    A(2,1,5)              104.6165         estimate D2E/DX2                !
 ! A2    A(2,1,14)             111.0982         estimate D2E/DX2                !
 ! A3    A(2,1,15)             110.1428         estimate D2E/DX2                !
 ! A4    A(5,1,14)             111.332          estimate D2E/DX2                !
 ! A5    A(5,1,15)             112.5311         estimate D2E/DX2                !
 ! A6    A(14,1,15)            107.1786         estimate D2E/DX2                !
 ! A7    A(1,2,3)              104.594          estimate D2E/DX2                !
 ! A8    A(1,2,6)              112.6633         estimate D2E/DX2                !
 ! A9    A(1,2,13)             109.1776         estimate D2E/DX2                !
 ! A10   A(3,2,6)              111.2335         estimate D2E/DX2                !
 ! A11   A(3,2,13)             111.0938         estimate D2E/DX2                !
 ! A12   A(6,2,13)             108.0784         estimate D2E/DX2                !
 ! A13   A(2,3,4)              105.4655         estimate D2E/DX2                !
 ! A14   A(2,3,12)             114.0325         estimate D2E/DX2                !
 ! A15   A(4,3,12)             113.8763         estimate D2E/DX2                !
 ! A16   A(3,4,5)              103.4927         estimate D2E/DX2                !
 ! A17   A(3,4,18)             110.8953         estimate D2E/DX2                !
 ! A18   A(3,4,19)             110.2247         estimate D2E/DX2                !
 ! A19   A(5,4,18)             110.7169         estimate D2E/DX2                !
 ! A20   A(5,4,19)             113.5806         estimate D2E/DX2                !
 ! A21   A(18,4,19)            107.9275         estimate D2E/DX2                !
 ! A22   A(1,5,4)              104.0076         estimate D2E/DX2                !
 ! A23   A(1,5,16)             110.3767         estimate D2E/DX2                !
 ! A24   A(1,5,17)             112.3222         estimate D2E/DX2                !
 ! A25   A(4,5,16)             110.1518         estimate D2E/DX2                !
 ! A26   A(4,5,17)             112.1465         estimate D2E/DX2                !
 ! A27   A(16,5,17)            107.835          estimate D2E/DX2                !
 ! A28   A(2,6,7)              121.4546         estimate D2E/DX2                !
 ! A29   A(2,6,11)             121.0881         estimate D2E/DX2                !
 ! A30   A(7,6,11)             117.4426         estimate D2E/DX2                !
 ! A31   A(6,7,8)              120.6232         estimate D2E/DX2                !
 ! A32   A(6,7,23)             123.1694         estimate D2E/DX2                !
 ! A33   A(8,7,23)             116.2072         estimate D2E/DX2                !
 ! A34   A(7,8,9)              122.8148         estimate D2E/DX2                !
 ! A35   A(7,8,22)             118.5335         estimate D2E/DX2                !
 ! A36   A(9,8,22)             118.6505         estimate D2E/DX2                !
 ! A37   A(8,9,10)             119.4018         estimate D2E/DX2                !
 ! A38   A(8,9,21)             116.6482         estimate D2E/DX2                !
 ! A39   A(10,9,21)            123.9495         estimate D2E/DX2                !
 ! A40   A(9,10,11)            118.9503         estimate D2E/DX2                !
 ! A41   A(9,10,27)            119.609          estimate D2E/DX2                !
 ! A42   A(11,10,27)           121.4406         estimate D2E/DX2                !
 ! A43   A(6,11,10)            120.7633         estimate D2E/DX2                !
 ! A44   A(6,11,20)            118.1535         estimate D2E/DX2                !
 ! A45   A(10,11,20)           121.0772         estimate D2E/DX2                !
 ! A46   A(3,12,24)            110.4358         estimate D2E/DX2                !
 ! A47   A(3,12,25)            112.2236         estimate D2E/DX2                !
 ! A48   A(3,12,26)            109.5184         estimate D2E/DX2                !
 ! A49   A(24,12,25)           108.4057         estimate D2E/DX2                !
 ! A50   A(24,12,26)           107.7366         estimate D2E/DX2                !
 ! A51   A(25,12,26)           108.3945         estimate D2E/DX2                !
 ! A52   A(22,28,29)           127.034          estimate D2E/DX2                !
 ! A53   A(22,28,30)           126.8529         estimate D2E/DX2                !
 ! A54   A(29,28,30)           106.0974         estimate D2E/DX2                !
 ! A55   A(28,29,31)           164.0552         estimate D2E/DX2                !
 ! A56   A(29,31,32)           125.9957         estimate D2E/DX2                !
 ! A57   A(29,31,33)           124.3666         estimate D2E/DX2                !
 ! A58   A(32,31,33)           109.471          estimate D2E/DX2                !
 ! A59   L(8,22,28,23,-1)      180.08           estimate D2E/DX2                !
 ! A60   L(8,22,28,23,-2)      179.9129         estimate D2E/DX2                !
 ! D1    D(5,1,2,3)            -16.3025         estimate D2E/DX2                !
 ! D2    D(5,1,2,6)           -137.2517         estimate D2E/DX2                !
 ! D3    D(5,1,2,13)           102.6643         estimate D2E/DX2                !
 ! D4    D(14,1,2,3)           103.9341         estimate D2E/DX2                !
 ! D5    D(14,1,2,6)           -17.0152         estimate D2E/DX2                !
 ! D6    D(14,1,2,13)         -137.0992         estimate D2E/DX2                !
 ! D7    D(15,1,2,3)          -137.4642         estimate D2E/DX2                !
 ! D8    D(15,1,2,6)           101.5865         estimate D2E/DX2                !
 ! D9    D(15,1,2,13)          -18.4975         estimate D2E/DX2                !
 ! D10   D(2,1,5,4)             -9.2305         estimate D2E/DX2                !
 ! D11   D(2,1,5,16)           108.8967         estimate D2E/DX2                !
 ! D12   D(2,1,5,17)          -130.726          estimate D2E/DX2                !
 ! D13   D(14,1,5,4)          -129.3108         estimate D2E/DX2                !
 ! D14   D(14,1,5,16)          -11.1837         estimate D2E/DX2                !
 ! D15   D(14,1,5,17)          109.1937         estimate D2E/DX2                !
 ! D16   D(15,1,5,4)           110.3387         estimate D2E/DX2                !
 ! D17   D(15,1,5,16)         -131.5341         estimate D2E/DX2                !
 ! D18   D(15,1,5,17)          -11.1568         estimate D2E/DX2                !
 ! D19   D(1,2,3,4)             37.22           estimate D2E/DX2                !
 ! D20   D(1,2,3,12)           162.8961         estimate D2E/DX2                !
 ! D21   D(6,2,3,4)            159.1124         estimate D2E/DX2                !
 ! D22   D(6,2,3,12)           -75.2114         estimate D2E/DX2                !
 ! D23   D(13,2,3,4)           -80.4427         estimate D2E/DX2                !
 ! D24   D(13,2,3,12)           45.2335         estimate D2E/DX2                !
 ! D25   D(1,2,6,7)           -100.3293         estimate D2E/DX2                !
 ! D26   D(1,2,6,11)            78.2405         estimate D2E/DX2                !
 ! D27   D(3,2,6,7)            142.5942         estimate D2E/DX2                !
 ! D28   D(3,2,6,11)           -38.8361         estimate D2E/DX2                !
 ! D29   D(13,2,6,7)            20.3862         estimate D2E/DX2                !
 ! D30   D(13,2,6,11)         -161.044          estimate D2E/DX2                !
 ! D31   D(2,3,4,5)            -43.4773         estimate D2E/DX2                !
 ! D32   D(2,3,4,18)            75.2737         estimate D2E/DX2                !
 ! D33   D(2,3,4,19)          -165.2686         estimate D2E/DX2                !
 ! D34   D(12,3,4,5)          -169.25           estimate D2E/DX2                !
 ! D35   D(12,3,4,18)          -50.4989         estimate D2E/DX2                !
 ! D36   D(12,3,4,19)           68.9588         estimate D2E/DX2                !
 ! D37   D(2,3,12,24)           61.5815         estimate D2E/DX2                !
 ! D38   D(2,3,12,25)          -59.4979         estimate D2E/DX2                !
 ! D39   D(2,3,12,26)         -179.9285         estimate D2E/DX2                !
 ! D40   D(4,3,12,24)         -177.3093         estimate D2E/DX2                !
 ! D41   D(4,3,12,25)           61.6113         estimate D2E/DX2                !
 ! D42   D(4,3,12,26)          -58.8193         estimate D2E/DX2                !
 ! D43   D(3,4,5,1)             31.4877         estimate D2E/DX2                !
 ! D44   D(3,4,5,16)           -86.7943         estimate D2E/DX2                !
 ! D45   D(3,4,5,17)           153.1001         estimate D2E/DX2                !
 ! D46   D(18,4,5,1)           -87.3866         estimate D2E/DX2                !
 ! D47   D(18,4,5,16)          154.3314         estimate D2E/DX2                !
 ! D48   D(18,4,5,17)           34.2258         estimate D2E/DX2                !
 ! D49   D(19,4,5,1)           151.0019         estimate D2E/DX2                !
 ! D50   D(19,4,5,16)           32.7199         estimate D2E/DX2                !
 ! D51   D(19,4,5,17)          -87.3857         estimate D2E/DX2                !
 ! D52   D(2,6,7,8)            177.8702         estimate D2E/DX2                !
 ! D53   D(2,6,7,23)            -2.3051         estimate D2E/DX2                !
 ! D54   D(11,6,7,8)            -0.7497         estimate D2E/DX2                !
 ! D55   D(11,6,7,23)          179.075          estimate D2E/DX2                !
 ! D56   D(2,6,11,10)         -178.105          estimate D2E/DX2                !
 ! D57   D(2,6,11,20)            2.7762         estimate D2E/DX2                !
 ! D58   D(7,6,11,10)            0.5202         estimate D2E/DX2                !
 ! D59   D(7,6,11,20)         -178.5985         estimate D2E/DX2                !
 ! D60   D(6,7,8,9)              0.4795         estimate D2E/DX2                !
 ! D61   D(6,7,8,22)          -179.9366         estimate D2E/DX2                !
 ! D62   D(23,7,8,9)          -179.3569         estimate D2E/DX2                !
 ! D63   D(23,7,8,22)            0.227          estimate D2E/DX2                !
 ! D64   D(7,8,9,10)             0.0575         estimate D2E/DX2                !
 ! D65   D(7,8,9,21)           179.8023         estimate D2E/DX2                !
 ! D66   D(22,8,9,10)         -179.526          estimate D2E/DX2                !
 ! D67   D(22,8,9,21)            0.2188         estimate D2E/DX2                !
 ! D68   D(7,8,28,29)          -90.6555         estimate D2E/DX2                !
 ! D69   D(7,8,28,30)           91.0307         estimate D2E/DX2                !
 ! D70   D(9,8,28,29)           88.999          estimate D2E/DX2                !
 ! D71   D(9,8,28,30)          -89.3148         estimate D2E/DX2                !
 ! D72   D(8,9,10,11)           -0.2844         estimate D2E/DX2                !
 ! D73   D(8,9,10,27)          179.6448         estimate D2E/DX2                !
 ! D74   D(21,9,10,11)         179.9906         estimate D2E/DX2                !
 ! D75   D(21,9,10,27)          -0.0802         estimate D2E/DX2                !
 ! D76   D(9,10,11,6)           -0.0138         estimate D2E/DX2                !
 ! D77   D(9,10,11,20)         179.079          estimate D2E/DX2                !
 ! D78   D(27,10,11,6)        -179.9417         estimate D2E/DX2                !
 ! D79   D(27,10,11,20)         -0.8488         estimate D2E/DX2                !
 ! D80   D(22,28,29,31)         52.518          estimate D2E/DX2                !
 ! D81   D(30,28,29,31)       -128.8487         estimate D2E/DX2                !
 ! D82   D(28,29,31,32)         43.61           estimate D2E/DX2                !
 ! D83   D(28,29,31,33)       -141.5847         estimate D2E/DX2                !
 ! D84   D(29,31,32,33)        175.4534         estimate D2E/DX2                !
 --------------------------------------------------------------------------------
 Trust Radius=3.00D-01 FncErr=1.00D-07 GrdErr=1.00D-06 EigMax=2.50D+02 EigMin=1.00D-04
 Number of steps in this run=    188 maximum allowed number of steps=    198.
 GradGradGradGradGradGradGradGradGradGradGradGradGradGradGradGradGradGrad

                          Input orientation:                          
 ---------------------------------------------------------------------
 Center     Atomic      Atomic             Coordinates (Angstroms)
 Number     Number       Type             X           Y           Z
 ---------------------------------------------------------------------
      1          6           0       -1.800645   -1.015847   -1.309890
      2          6           0       -1.189589   -0.609301    0.058231
      3          7           0       -2.174152    0.282289    0.648666
      4          6           0       -3.474256   -0.269251    0.272941
      5          6           0       -3.294551   -0.634248   -1.198736
      6          6           0        0.151077    0.072472   -0.082615
      7          6           0        1.335374   -0.612074    0.129413
      8          7           0        2.521682    0.000557   -0.042175
      9          6           0        2.629562    1.286047   -0.411636
     10          6           0        1.482341    2.029183   -0.628744
     11          6           0        0.242144    1.418303   -0.462929
     12          6           0       -2.010693    0.480484    2.077243
     13          1           0       -1.050098   -1.518699    0.680140
     14          1           0       -1.312873   -0.482104   -2.134290
     15          1           0       -1.652926   -2.087256   -1.485687
     16          1           0       -3.515178    0.232215   -1.832241
     17          1           0       -3.956191   -1.450807   -1.505178
     18          1           0       -3.710414   -1.170261    0.874528
     19          1           0       -4.264466    0.470044    0.448065
     20          1           0       -0.683502    1.974916   -0.610331
     21          1           0        3.637261    1.680030   -0.517527
     22          1           0        3.388701   -0.543258    0.124615
     23          1           0        1.373208   -1.653995    0.440768
     24          1           0       -1.036246    0.939794    2.291692
     25          1           0       -2.081749   -0.469705    2.643059
     26          1           0       -2.788157    1.160299    2.443919
     27          1           0        1.565822    3.072872   -0.922622
     28          8           0        4.825008   -1.442047    0.397875
     29          1           0        5.309473   -1.522407    1.224631
     30          1           0        5.319976   -1.949825   -0.251641
     31          8           0        5.753594   -1.795501    2.897998
     32          1           0        5.466664   -2.539877    3.449791
     33          1           0        6.388359   -1.252962    3.391582
 ---------------------------------------------------------------------
                    Distance matrix (angstroms):
                    1          2          3          4          5
     1  C    0.000000
     2  C    1.552554   0.000000
     3  N    2.379203   1.453585   0.000000
     4  C    2.421515   2.319793   1.461382   0.000000
     5  C    1.545875   2.451827   2.346961   1.526876   0.000000
     6  C    2.549482   1.510641   2.446525   3.658720   3.690194
     7  C    3.474081   2.525968   3.658727   4.823968   4.816708
     8  N    4.617650   3.762385   4.754734   6.010272   5.963990
     9  C    5.072702   4.289409   5.020701   6.335944   6.277115
    10  C    4.529257   3.817426   4.248924   5.537480   5.498859
    11  C    3.288680   2.536266   2.892172   4.147405   4.154827
    12  C    3.708881   2.436853   1.451493   2.441234   3.690929
    13  H    2.185498   1.110510   2.123216   2.757440   3.057777
    14  H    1.096558   2.199665   3.011801   3.242167   2.196692
    15  H    1.095738   2.186942   3.231390   3.116915   2.210997
    16  H    2.184063   3.112940   2.820595   2.164471   1.095793
    17  H    2.207647   3.287319   3.289123   2.188617   1.094734
    18  H    2.905640   2.708427   2.126268   1.108827   2.181439
    19  H    3.371749   3.282046   2.108294   1.096201   2.207295
    20  H    3.268341   2.716851   2.583040   3.688463   3.737852
    21  H    6.120981   5.373175   6.089845   7.416078   7.339615
    22  H    5.404670   4.579248   5.648140   6.870026   6.813618
    23  H    3.680405   2.793859   4.046749   5.044164   5.051320
    24  H    4.168960   2.722418   2.103967   3.388368   4.445294
    25  H    4.000387   2.738023   2.133457   2.756214   4.032041
    26  H    4.449930   3.373190   2.090655   2.688399   4.092159
    27  H    5.310433   4.702421   4.923790   6.164539   6.119003
    28  O    6.855464   6.081464   7.212799   8.382651   8.314382
    29  H    7.565327   6.665738   7.719670   8.923565   8.982804
    30  H    7.259163   6.653380   7.871140   8.968725   8.765718
    31  O    8.682206   7.594678   8.498580   9.714607  10.000033
    32  H    8.819921   7.715925   8.613535   9.756442  10.099461
    33  H    9.445626   8.303663   9.121249  10.390610  10.733712
                    6          7          8          9         10
     6  C    0.000000
     7  C    1.384239   0.000000
     8  N    2.372040   1.346137   0.000000
     9  C    2.779192   2.360195   1.341873   0.000000
    10  C    2.428835   2.751843   2.353639   1.384017   0.000000
    11  C    1.401497   2.380851   2.717229   2.391629   1.392393
    12  C    3.082971   4.022920   5.026399   5.326858   4.682106
    13  H    2.134582   2.610698   3.948100   4.753785   4.551252
    14  H    2.580712   3.486324   4.394738   4.651525   4.048018
    15  H    3.144434   3.703329   4.885698   5.556299   5.244933
    16  H    4.065481   5.299883   6.300927   6.394256   5.445429
    17  H    4.605835   5.601430   6.797770   7.215147   6.515834
    18  H    4.167928   5.130960   6.407041   6.919752   6.281797
    19  H    4.465054   5.712331   6.820012   6.995182   6.051134
    20  H    2.143432   3.363867   3.807112   3.389751   2.166601
    21  H    3.863531   3.312243   2.071498   1.087149   2.185854
    22  H    3.302162   2.054485   1.036955   2.051881   3.289257
    23  H    2.179042   1.088105   2.071176   3.308907   3.836869
    24  H    2.792726   3.564874   4.357517   4.567934   4.007368
    25  H    3.564936   4.244457   5.350066   5.883050   5.445353
    26  H    4.025648   5.049926   5.976626   6.125495   5.332295
    27  H    3.421917   3.839103   3.335862   2.141353   1.087483
    28  O    4.936625   3.597009   2.753191   3.594132   4.927150
    29  H    5.555320   4.221572   3.419941   4.212684   5.540373
    30  H    5.552997   4.220407   3.417355   4.211270   5.540952
    31  O    6.615253   5.346609   4.723949   5.496289   6.731249
    32  H    6.896211   5.639937   5.226906   6.131676   7.306544
    33  H    7.261578   6.048565   5.321014   5.919425   7.141744
                   11         12         13         14         15
    11  C    0.000000
    12  C    3.522393   0.000000
    13  H    3.406241   2.621330   0.000000
    14  H    2.970366   4.376133   3.010747   0.000000
    15  H    4.114155   4.406331   2.318936   1.764323   0.000000
    16  H    4.171245   4.196329   3.931206   2.334873   2.994667
    17  H    5.190770   4.510941   3.636702   2.884666   2.389660
    18  H    4.910414   2.657167   2.690070   3.908292   3.262630
    19  H    4.694533   2.780975   3.786967   4.035721   4.135133
    20  H    1.090122   3.349301   3.742333   2.958970   4.266998
    21  H    3.405628   6.330176   5.799794   5.638490   6.566267
    22  H    3.754164   5.832174   4.578540   5.216435   5.513167
    23  H    3.396320   4.322596   2.438855   3.901190   3.613368
    24  H    3.074279   1.098408   2.939639   4.656998   4.879746
    25  H    4.314188   1.108177   2.453109   4.838842   4.454986
    26  H    4.207025   1.095924   3.648122   5.082711   5.222755
    27  H    2.168188   5.339581   5.522174   4.732111   6.107725
    28  O    5.470396   7.296795   5.882382   6.708721   6.777000
    29  H    6.097004   7.636973   6.382839   7.498003   7.492655
    30  H    6.096992   8.066524   6.452281   7.049345   7.082593
    31  O    7.211134   8.132521   7.161406   8.774046   8.611525
    32  H    7.633621   8.180301   7.154156   9.021004   8.674812
    33  H    7.731033   8.676197   7.921690   9.509914   9.441719
                   16         17         18         19         20
    16  H    0.000000
    17  H    1.770318   0.000000
    18  H    3.054776   2.408758   0.000000
    19  H    2.412010   2.756784   1.783100   0.000000
    20  H    3.542381   4.821496   4.610764   4.025934   0.000000
    21  H    7.414987   8.272733   8.003143   8.051939   4.331808
    22  H    7.217630   7.578081   7.166096   7.726731   4.843984
    23  H    5.711451   5.677190   5.124974   6.024530   4.301611
    24  H    4.863393   5.353249   3.689425   3.747136   3.101233
    25  H    4.751391   4.656604   2.504203   3.235024   4.303000
    26  H    4.435701   4.876222   2.957204   2.576698   3.797580
    27  H    5.891799   7.162100   7.005183   6.530372   2.522398
    28  O    8.794048   8.985051   8.553040   9.288549   6.560168
    29  H    9.502507   9.659685   9.033545   9.809853   7.177333
    30  H    9.236858   9.373774   9.133670   9.909939   7.181504
    31  O   10.601742  10.667085   9.698083  10.559185   8.243823
    32  H   10.782293  10.701775   9.629464  10.619080   8.642481
    33  H   11.294872  11.446708  10.408055  11.185514   8.743325
                   21         22         23         24         25
    21  H    0.000000
    22  H    2.327475   0.000000
    23  H    4.142462   2.322908   0.000000
    24  H    5.502847   5.145466   3.994888   0.000000
    25  H    6.878789   6.022773   4.264898   1.789755   0.000000
    26  H    7.094102   6.814312   5.408311   1.772283   1.787619
    27  H    2.528828   4.182821   4.923333   4.653235   6.210371
    28  O    3.463534   1.716237   3.458567   6.604090   7.327318
    29  H    4.010862   2.420358   4.015711   6.889790   7.599361
    30  H    4.009747   2.418641   4.017950   7.431016   8.084280
    31  O    5.312626   3.853892   5.024518   7.345160   7.950807
    32  H    6.074038   4.400137   5.157071   7.465731   7.868606
    33  H    5.608219   4.491626   5.832656   7.819380   8.539116
                   26         27         28         29         30
    26  H    0.000000
    27  H    5.826548   0.000000
    28  O    8.301734   5.722805   0.000000
    29  H    8.617145   6.304142   0.961608   0.000000
    30  H    9.092895   6.306455   0.961615   1.536937   0.000000
    31  O    9.050108   7.472324   2.690319   1.752707   3.183090
    32  H    9.101931   8.114032   3.306228   2.451793   3.751036
    33  H    9.535740   7.783448   3.382617   2.435626   3.860069
                   31         32         33
    31  O    0.000000
    32  H    0.970000   0.000000
    33  H    0.970000   1.584001   0.000000
 Stoichiometry    C10H19N2O2(1+)
 Framework group  C1[X(C10H19N2O2)]
 Deg. of freedom    93
 Full point group                 C1      NOp   1
 Largest Abelian subgroup         C1      NOp   1
 Largest concise Abelian subgroup C1      NOp   1
                         Standard orientation:                         
 ---------------------------------------------------------------------
 Center     Atomic      Atomic             Coordinates (Angstroms)
 Number     Number       Type             X           Y           Z
 ---------------------------------------------------------------------
      1          6           0       -2.472263    0.065452   -1.598439
      2          6           0       -1.668187   -0.509750   -0.401347
      3          7           0       -2.621772   -0.549656    0.695007
      4          6           0       -3.896605   -0.928176    0.089069
      5          6           0       -3.953213   -0.081223   -1.180110
      6          6           0       -0.465010    0.333241   -0.049541
      7          6           0        0.809005   -0.019285   -0.460308
      8          7           0        1.863830    0.766423   -0.173787
      9          6           0        1.751920    1.909538    0.520036
     10          6           0        0.506373    2.312682    0.969021
     11          6           0       -0.602308    1.520672    0.682136
     12          6           0       -2.219113   -1.403068    1.797906
     13          1           0       -1.311309   -1.529565   -0.657957
     14          1           0       -2.211472    1.114720   -1.781371
     15          1           0       -2.237217   -0.490607   -2.512876
     16          1           0       -4.386460    0.900834   -0.959597
     17          1           0       -4.561605   -0.548361   -1.961189
     18          1           0       -3.911002   -2.008697   -0.159454
     19          1           0       -4.720327   -0.730992    0.784956
     20          1           0       -1.597156    1.797484    1.031449
     21          1           0        2.669945    2.464300    0.697131
     22          1           0        2.803608    0.471671   -0.498152
     23          1           0        1.024156   -0.927358   -1.019849
     24          1           0       -1.281415   -1.040804    2.240611
     25          1           0       -2.073405   -2.455265    1.482144
     26          1           0       -2.987861   -1.379590    2.578627
     27          1           0        0.412640    3.235545    1.536612
     28          8           0        4.359640   -0.013045   -1.036006
     29          1           0        4.995577   -0.552955   -0.557706
     30          1           0        4.780226    0.219318   -1.868963
     31          8           0        5.772060   -1.834683    0.351265
     32          1           0        5.680773   -2.786255    0.186717
     33          1           0        6.420707   -1.689479    1.057716
 ---------------------------------------------------------------------
 Rotational constants (GHZ):           1.0800059           0.2533315           0.2395972
 Standard basis: Aug-CC-pVDZ (5D, 7F)
 There are   521 symmetry adapted cartesian basis functions of A   symmetry.
 There are   493 symmetry adapted basis functions of A   symmetry.
   493 basis functions,   811 primitive gaussians,   521 cartesian basis functions
    54 alpha electrons       54 beta electrons
       nuclear repulsion energy       906.0333502916 Hartrees.
 NAtoms=   33 NActive=   33 NUniq=   33 SFac= 1.00D+00 NAtFMM=   60 NAOKFM=F Big=F
 Integral buffers will be    131072 words long.
 Raffenetti 2 integral format.
 Two-electron integral symmetry is turned on.
 Nuclear repulsion after empirical dispersion term =      906.0117804540 Hartrees.
 One-electron integrals computed using PRISM.
 NBasis=   493 RedAO= T EigKep=  2.64D-06  NBF=   493
 NBsUse=   493 1.00D-06 EigRej= -1.00D+00 NBFU=   493
 ExpMin= 2.97D-02 ExpMax= 1.17D+04 ExpMxC= 4.01D+02 IAcc=3 IRadAn=         5 AccDes= 0.00D+00
 Harris functional with IExCor= 4639 and IRadAn=       5 diagonalized for initial guess.
 HarFok:  IExCor= 4639 AccDes= 0.00D+00 IRadAn=         5 IDoV= 1 UseB2=F ITyADJ=14
 ICtDFT=  3500011 ScaDFX=  1.000000  1.000000  1.000000  1.000000
 FoFCou: FMM=F IPFlag=           0 FMFlag=      100000 FMFlg1=           0
         NFxFlg=           0 DoJE=T BraDBF=F KetDBF=T FulRan=T
         wScrn=  0.000000 ICntrl=       500 IOpCl=  0 I1Cent=   200000004 NGrid=           0
         NMat0=    1 NMatS0=      1 NMatT0=    0 NMatD0=    1 NMtDS0=    0 NMtDT0=    0
 Petite list used in FoFCou.
 Requested convergence on RMS density matrix=1.00D-08 within 128 cycles.
 Requested convergence on MAX density matrix=1.00D-06.
 Requested convergence on             energy=1.00D-06.
 No special actions if energy rises.
 SCF Done:  E(RwB97XD) =  -652.149144238     A.U. after   14 cycles
            NFock= 14  Conv=0.81D-08     -V/T= 2.0064

 **********************************************************************

            Population analysis using the SCF density.

 **********************************************************************

 Orbital symmetries:
       Occupied  (A) (A) (A) (A) (A) (A) (A) (A) (A) (A) (A) (A)
                 (A) (A) (A) (A) (A) (A) (A) (A) (A) (A) (A) (A)
                 (A) (A) (A) (A) (A) (A) (A) (A) (A) (A) (A) (A)
                 (A) (A) (A) (A) (A) (A) (A) (A) (A) (A) (A) (A)
                 (A) (A) (A) (A) (A) (A)
       Virtual   (A) (A) (A) (A) (A) (A) (A) (A) (A) (A) (A) (A)
                 (A) (A) (A) (A) (A) (A) (A) (A) (A) (A) (A) (A)
                 (A) (A) (A) (A) (A) (A) (A) (A) (A) (A) (A) (A)
                 (A) (A) (A) (A) (A) (A) (A) (A) (A) (A) (A) (A)
                 (A) (A) (A) (A) (A) (A) (A) (A) (A) (A) (A) (A)
                 (A) (A) (A) (A) (A) (A) (A) (A) (A) (A) (A) (A)
                 (A) (A) (A) (A) (A) (A) (A) (A) (A) (A) (A) (A)
                 (A) (A) (A) (A) (A) (A) (A) (A) (A) (A) (A) (A)
                 (A) (A) (A) (A) (A) (A) (A) (A) (A) (A) (A) (A)
                 (A) (A) (A) (A) (A) (A) (A) (A) (A) (A) (A) (A)
                 (A) (A) (A) (A) (A) (A) (A) (A) (A) (A) (A) (A)
                 (A) (A) (A) (A) (A) (A) (A) (A) (A) (A) (A) (A)
                 (A) (A) (A) (A) (A) (A) (A) (A) (A) (A) (A) (A)
                 (A) (A) (A) (A) (A) (A) (A) (A) (A) (A) (A) (A)
                 (A) (A) (A) (A) (A) (A) (A) (A) (A) (A) (A) (A)
                 (A) (A) (A) (A) (A) (A) (A) (A) (A) (A) (A) (A)
                 (A) (A) (A) (A) (A) (A) (A) (A) (A) (A) (A) (A)
                 (A) (A) (A) (A) (A) (A) (A) (A) (A) (A) (A) (A)
                 (A) (A) (A) (A) (A) (A) (A) (A) (A) (A) (A) (A)
                 (A) (A) (A) (A) (A) (A) (A) (A) (A) (A) (A) (A)
                 (A) (A) (A) (A) (A) (A) (A) (A) (A) (A) (A) (A)
                 (A) (A) (A) (A) (A) (A) (A) (A) (A) (A) (A) (A)
                 (A) (A) (A) (A) (A) (A) (A) (A) (A) (A) (A) (A)
                 (A) (A) (A) (A) (A) (A) (A) (A) (A) (A) (A) (A)
                 (A) (A) (A) (A) (A) (A) (A) (A) (A) (A) (A) (A)
                 (A) (A) (A) (A) (A) (A) (A) (A) (A) (A) (A) (A)
                 (A) (A) (A) (A) (A) (A) (A) (A) (A) (A) (A) (A)
                 (A) (A) (A) (A) (A) (A) (A) (A) (A) (A) (A) (A)
                 (A) (A) (A) (A) (A) (A) (A) (A) (A) (A) (A) (A)
                 (A) (A) (A) (A) (A) (A) (A) (A) (A) (A) (A) (A)
                 (A) (A) (A) (A) (A) (A) (A) (A) (A) (A) (A) (A)
                 (A) (A) (A) (A) (A) (A) (A) (A) (A) (A) (A) (A)
                 (A) (A) (A) (A) (A) (A) (A) (A) (A) (A) (A) (A)
                 (A) (A) (A) (A) (A) (A) (A) (A) (A) (A) (A) (A)
                 (A) (A) (A) (A) (A) (A) (A) (A) (A) (A) (A) (A)
                 (A) (A) (A) (A) (A) (A) (A) (A) (A) (A) (A) (A)
                 (A) (A) (A) (A) (A) (A) (A)
 The electronic state is 1-A.
 Alpha  occ. eigenvalues --  -19.41128 -19.40183 -14.68513 -14.55286 -10.51567
 Alpha  occ. eigenvalues --  -10.51206 -10.47557 -10.47155 -10.47078 -10.45343
 Alpha  occ. eigenvalues --  -10.41566 -10.41449 -10.40634 -10.39157  -1.26540
 Alpha  occ. eigenvalues --   -1.25361  -1.24094  -1.15808  -1.08190  -1.05002
 Alpha  occ. eigenvalues --   -0.99132  -0.95241  -0.90920  -0.89056  -0.87631
 Alpha  occ. eigenvalues --   -0.83117  -0.78530  -0.77458  -0.76158  -0.75964
 Alpha  occ. eigenvalues --   -0.75121  -0.73710  -0.70777  -0.69166  -0.68658
 Alpha  occ. eigenvalues --   -0.68092  -0.64799  -0.64056  -0.63373  -0.62405
 Alpha  occ. eigenvalues --   -0.61037  -0.60102  -0.59100  -0.57136  -0.56331
 Alpha  occ. eigenvalues --   -0.55417  -0.54379  -0.53997  -0.53866  -0.53077
 Alpha  occ. eigenvalues --   -0.52418  -0.50820  -0.49215  -0.41342
 Alpha virt. eigenvalues --   -0.14473  -0.10814  -0.07278  -0.05420  -0.04905
 Alpha virt. eigenvalues --   -0.04550  -0.03623  -0.03042  -0.02960  -0.02783
 Alpha virt. eigenvalues --   -0.01761  -0.01434  -0.01142  -0.00850  -0.00287
 Alpha virt. eigenvalues --    0.00075   0.00547   0.00859   0.01619   0.01735
 Alpha virt. eigenvalues --    0.02372   0.02633   0.03077   0.03242   0.03324
 Alpha virt. eigenvalues --    0.03502   0.04035   0.04254   0.05016   0.05126
 Alpha virt. eigenvalues --    0.05373   0.05603   0.05931   0.06343   0.06635
 Alpha virt. eigenvalues --    0.07064   0.07387   0.07694   0.07884   0.08197
 Alpha virt. eigenvalues --    0.08374   0.08807   0.08933   0.09312   0.09785
 Alpha virt. eigenvalues --    0.10284   0.10364   0.10692   0.10930   0.11561
 Alpha virt. eigenvalues --    0.11777   0.12011   0.12517   0.12887   0.13119
 Alpha virt. eigenvalues --    0.13233   0.13729   0.14074   0.14262   0.14675
 Alpha virt. eigenvalues --    0.14959   0.15358   0.15734   0.16225   0.16351
 Alpha virt. eigenvalues --    0.16689   0.16782   0.16874   0.17064   0.17758
 Alpha virt. eigenvalues --    0.18088   0.18273   0.18669   0.18921   0.19439
 Alpha virt. eigenvalues --    0.19710   0.20167   0.20701   0.21012   0.21167
 Alpha virt. eigenvalues --    0.21361   0.22290   0.22594   0.22975   0.23187
 Alpha virt. eigenvalues --    0.24040   0.24272   0.24584   0.24964   0.25003
 Alpha virt. eigenvalues --    0.25338   0.26042   0.26502   0.26879   0.26963
 Alpha virt. eigenvalues --    0.27378   0.28035   0.28136   0.28703   0.29095
 Alpha virt. eigenvalues --    0.29899   0.30218   0.31090   0.31357   0.31560
 Alpha virt. eigenvalues --    0.31696   0.32698   0.32895   0.33362   0.34090
 Alpha virt. eigenvalues --    0.34653   0.34882   0.35356   0.35789   0.36305
 Alpha virt. eigenvalues --    0.36738   0.37131   0.37264   0.37862   0.38064
 Alpha virt. eigenvalues --    0.38441   0.38897   0.39504   0.39750   0.40214
 Alpha virt. eigenvalues --    0.40991   0.41549   0.42219   0.42436   0.42688
 Alpha virt. eigenvalues --    0.42858   0.43182   0.43373   0.44031   0.45104
 Alpha virt. eigenvalues --    0.45300   0.45581   0.45900   0.46166   0.46563
 Alpha virt. eigenvalues --    0.47288   0.47645   0.48147   0.49187   0.49603
 Alpha virt. eigenvalues --    0.49908   0.50082   0.50187   0.50471   0.50675
 Alpha virt. eigenvalues --    0.51359   0.51609   0.51891   0.52366   0.52485
 Alpha virt. eigenvalues --    0.53241   0.53570   0.54035   0.54100   0.54601
 Alpha virt. eigenvalues --    0.54938   0.55584   0.56243   0.56733   0.57160
 Alpha virt. eigenvalues --    0.57511   0.57587   0.58748   0.59196   0.59666
 Alpha virt. eigenvalues --    0.59910   0.60773   0.61804   0.62207   0.62312
 Alpha virt. eigenvalues --    0.62598   0.63433   0.63937   0.64230   0.64457
 Alpha virt. eigenvalues --    0.64826   0.65570   0.66200   0.66830   0.67420
 Alpha virt. eigenvalues --    0.67706   0.68187   0.69082   0.69086   0.70020
 Alpha virt. eigenvalues --    0.70235   0.70478   0.71068   0.71619   0.71925
 Alpha virt. eigenvalues --    0.72715   0.73426   0.73517   0.74009   0.74143
 Alpha virt. eigenvalues --    0.75165   0.76057   0.76206   0.76812   0.77378
 Alpha virt. eigenvalues --    0.78184   0.78830   0.79070   0.79278   0.79868
 Alpha virt. eigenvalues --    0.80281   0.81019   0.82028   0.83321   0.83922
 Alpha virt. eigenvalues --    0.84627   0.85091   0.85574   0.86258   0.87140
 Alpha virt. eigenvalues --    0.87460   0.88843   0.89892   0.90623   0.90888
 Alpha virt. eigenvalues --    0.91460   0.92204   0.93692   0.94602   0.95592
 Alpha virt. eigenvalues --    0.96203   0.97408   0.97712   0.98478   0.99076
 Alpha virt. eigenvalues --    0.99711   1.00598   1.01235   1.02130   1.03510
 Alpha virt. eigenvalues --    1.04616   1.05006   1.06341   1.06684   1.07793
 Alpha virt. eigenvalues --    1.08819   1.09419   1.11061   1.12458   1.12801
 Alpha virt. eigenvalues --    1.15284   1.15714   1.16232   1.16497   1.17700
 Alpha virt. eigenvalues --    1.19048   1.19588   1.21214   1.22038   1.23437
 Alpha virt. eigenvalues --    1.24706   1.25433   1.25748   1.28882   1.29444
 Alpha virt. eigenvalues --    1.29675   1.30959   1.31965   1.32685   1.33545
 Alpha virt. eigenvalues --    1.35270   1.35510   1.36419   1.37288   1.38312
 Alpha virt. eigenvalues --    1.39156   1.41784   1.42309   1.42793   1.43522
 Alpha virt. eigenvalues --    1.43962   1.46330   1.46544   1.47206   1.47991
 Alpha virt. eigenvalues --    1.50170   1.50357   1.51412   1.52386   1.53726
 Alpha virt. eigenvalues --    1.54342   1.56494   1.56831   1.58076   1.58998
 Alpha virt. eigenvalues --    1.60101   1.60621   1.61912   1.62367   1.63428
 Alpha virt. eigenvalues --    1.64613   1.65310   1.66397   1.66912   1.68286
 Alpha virt. eigenvalues --    1.68710   1.70898   1.71616   1.72463   1.73029
 Alpha virt. eigenvalues --    1.73100   1.73909   1.74894   1.76294   1.77487
 Alpha virt. eigenvalues --    1.78569   1.79014   1.79415   1.80433   1.80841
 Alpha virt. eigenvalues --    1.81764   1.82562   1.83883   1.84448   1.85591
 Alpha virt. eigenvalues --    1.85877   1.87930   1.88205   1.88839   1.89832
 Alpha virt. eigenvalues --    1.90992   1.91764   1.93087   1.93460   1.95231
 Alpha virt. eigenvalues --    1.96415   1.97058   1.97358   1.99312   1.99946
 Alpha virt. eigenvalues --    2.00538   2.02167   2.03018   2.05035   2.05639
 Alpha virt. eigenvalues --    2.06364   2.07475   2.08085   2.08916   2.10661
 Alpha virt. eigenvalues --    2.11254   2.12532   2.13523   2.13792   2.15369
 Alpha virt. eigenvalues --    2.15780   2.16473   2.17136   2.18816   2.19550
 Alpha virt. eigenvalues --    2.21017   2.21381   2.22495   2.23795   2.24353
 Alpha virt. eigenvalues --    2.25889   2.26733   2.26990   2.29059   2.30098
 Alpha virt. eigenvalues --    2.30524   2.32398   2.33191   2.35360   2.36874
 Alpha virt. eigenvalues --    2.38817   2.40759   2.41242   2.42821   2.44085
 Alpha virt. eigenvalues --    2.44597   2.47020   2.48058   2.49466   2.51113
 Alpha virt. eigenvalues --    2.51719   2.52612   2.54337   2.54647   2.55151
 Alpha virt. eigenvalues --    2.55749   2.58103   2.60237   2.61074   2.62028
 Alpha virt. eigenvalues --    2.62600   2.63764   2.65238   2.65367   2.67776
 Alpha virt. eigenvalues --    2.69202   2.70941   2.72593   2.73316   2.74659
 Alpha virt. eigenvalues --    2.77138   2.77799   2.80024   2.81419   2.81902
 Alpha virt. eigenvalues --    2.84132   2.86146   2.87775   2.89931   2.92211
 Alpha virt. eigenvalues --    2.95729   2.99782   3.03127   3.11845   3.14074
 Alpha virt. eigenvalues --    3.15277   3.21768   3.25972   3.26965   3.31117
 Alpha virt. eigenvalues --    3.34103   3.35477   3.43361   3.44019   3.46685
 Alpha virt. eigenvalues --    3.51988   3.56828   3.66796   3.69041   3.77421
 Alpha virt. eigenvalues --    3.86438   4.03356   4.23741   4.85847
          Condensed to atoms (all electrons):
               1          2          3          4          5          6
     1  C    6.883225  -0.675445  -0.431312   0.265043  -0.577602   0.184702
     2  C   -0.675445  18.682384  -2.112358  -0.208985  -0.912623  -4.842963
     3  N   -0.431312  -2.112358   8.881177   0.115855   0.135646   0.706408
     4  C    0.265043  -0.208985   0.115855   5.635876   0.155725  -0.222908
     5  C   -0.577602  -0.912623   0.135646   0.155725   6.026201   0.577153
     6  C    0.184702  -4.842963   0.706408  -0.222908   0.577153  22.205040
     7  C   -0.544296  -1.543586   0.001559  -0.185165   0.103083  -6.602472
     8  N    0.028616   0.419768  -0.058854   0.016923  -0.013841   0.327601
     9  C   -0.116037  -0.849908   0.063096  -0.052877  -0.009176  -0.491352
    10  C    0.247873   0.233608  -0.158542   0.077438   0.065538   1.326988
    11  C   -0.144569  -0.992890   0.391330  -0.124196  -0.370074  -8.270833
    12  C   -0.068589  -0.340688   0.430115  -0.213259   0.003978   0.166396
    13  H    0.398302  -2.095215  -0.152512  -0.109841   0.068193   0.458916
    14  H   -0.285414   0.019938   0.043095   0.077397   0.259386  -0.500499
    15  H   -0.703529   0.205420   0.141608  -0.144409   0.246993   0.198560
    16  H    0.086521  -0.080011   0.095212  -0.028651  -0.185259   0.080702
    17  H    0.328856   0.017589  -0.030155   0.107794  -0.322381  -0.053164
    18  H   -0.130835  -0.273125   0.446677  -0.265704   0.063949   0.177432
    19  H    0.125946   0.534860  -0.682390  -0.104204  -0.042687  -0.218128
    20  H    0.066855   0.133630  -0.231424   0.040324   0.008327   0.135710
    21  H    0.004347   0.011440   0.003773  -0.000984  -0.000506   0.192387
    22  H   -0.023009  -0.015088   0.001886  -0.004102   0.004032  -0.616006
    23  H    0.142370   0.049173   0.055958   0.012460   0.000633   0.089355
    24  H    0.122787   0.159866  -0.167726  -0.071078  -0.067758   0.052376
    25  H   -0.026791  -0.264535   0.220709   0.012150   0.060638   0.013330
    26  H   -0.055705  -0.046912  -0.269688   0.027636   0.046632   0.103402
    27  H   -0.010103   0.017955  -0.003717   0.001492   0.005212  -0.371122
    28  O   -0.001232  -0.001386   0.000293   0.000112  -0.000141  -0.098404
    29  H    0.000202   0.001218   0.000183   0.000114  -0.000079  -0.002193
    30  H    0.000227   0.002498  -0.000097   0.000048  -0.000038   0.007734
    31  O    0.000064   0.000604  -0.000005   0.000008  -0.000005   0.004235
    32  H    0.000007   0.000104  -0.000000  -0.000001   0.000007   0.000813
    33  H    0.000002   0.000083  -0.000010   0.000001  -0.000002   0.000412
               7          8          9         10         11         12
     1  C   -0.544296   0.028616  -0.116037   0.247873  -0.144569  -0.068589
     2  C   -1.543586   0.419768  -0.849908   0.233608  -0.992890  -0.340688
     3  N    0.001559  -0.058854   0.063096  -0.158542   0.391330   0.430115
     4  C   -0.185165   0.016923  -0.052877   0.077438  -0.124196  -0.213259
     5  C    0.103083  -0.013841  -0.009176   0.065538  -0.370074   0.003978
     6  C   -6.602472   0.327601  -0.491352   1.326988  -8.270833   0.166396
     7  C   17.719617  -0.881079  -0.574644  -1.435199  -0.838193  -0.028467
     8  N   -0.881079   7.352805   0.041591   0.386359  -0.471815  -0.014774
     9  C   -0.574644   0.041591   9.930660  -2.863494   1.067655   0.007389
    10  C   -1.435199   0.386359  -2.863494  13.403902  -5.386400  -0.002889
    11  C   -0.838193  -0.471815   1.067655  -5.386400  21.347615  -0.034414
    12  C   -0.028467  -0.014774   0.007389  -0.002889  -0.034414   4.471076
    13  H    0.345413  -0.007059   0.038752  -0.073415  -0.039718   0.056907
    14  H    0.115106   0.021189  -0.020767  -0.009121   0.079139   0.019077
    15  H   -0.042136  -0.013271   0.002287   0.033803  -0.051100   0.011996
    16  H    0.009355  -0.002273   0.002241   0.012319   0.014290  -0.014099
    17  H    0.004880  -0.000392   0.000847  -0.005595  -0.000185   0.014735
    18  H    0.012533  -0.000193  -0.000482   0.003948   0.022292  -0.014804
    19  H   -0.012046   0.001875  -0.003011   0.002012  -0.010309  -0.010376
    20  H    0.143957  -0.025862  -0.227525   1.051937  -2.299250  -0.030249
    21  H    0.038639   0.015175  -0.822674   0.289870   0.051031   0.002653
    22  H    0.490401  -0.009757  -0.359485  -0.162138   0.067372  -0.002257
    23  H   -0.960866   0.091828   0.004494   0.014242   0.030803   0.005871
    24  H   -0.191590   0.022613  -0.008932   0.055084  -0.043927   0.249846
    25  H    0.064066  -0.008762   0.002455   0.000967   0.022404   0.139414
    26  H    0.026637  -0.002838   0.004024  -0.004374  -0.038241   0.363128
    27  H    0.062518  -0.032837   0.505577  -1.289001   0.833149  -0.008223
    28  O    0.108354  -0.168391   0.016177  -0.038333   0.043876  -0.000376
    29  H   -0.003181   0.006755  -0.004444   0.000545   0.005331  -0.000220
    30  H   -0.010313   0.008069  -0.007476   0.007553  -0.002273   0.000034
    31  O   -0.005520  -0.001747   0.007395   0.001592  -0.000577  -0.000025
    32  H   -0.002385   0.000637  -0.000409   0.000519  -0.000522   0.000019
    33  H    0.000390   0.000285  -0.000411   0.000067  -0.000241   0.000001
              13         14         15         16         17         18
     1  C    0.398302  -0.285414  -0.703529   0.086521   0.328856  -0.130835
     2  C   -2.095215   0.019938   0.205420  -0.080011   0.017589  -0.273125
     3  N   -0.152512   0.043095   0.141608   0.095212  -0.030155   0.446677
     4  C   -0.109841   0.077397  -0.144409  -0.028651   0.107794  -0.265704
     5  C    0.068193   0.259386   0.246993  -0.185259  -0.322381   0.063949
     6  C    0.458916  -0.500499   0.198560   0.080702  -0.053164   0.177432
     7  C    0.345413   0.115106  -0.042136   0.009355   0.004880   0.012533
     8  N   -0.007059   0.021189  -0.013271  -0.002273  -0.000392  -0.000193
     9  C    0.038752  -0.020767   0.002287   0.002241   0.000847  -0.000482
    10  C   -0.073415  -0.009121   0.033803   0.012319  -0.005595   0.003948
    11  C   -0.039718   0.079139  -0.051100   0.014290  -0.000185   0.022292
    12  C    0.056907   0.019077   0.011996  -0.014099   0.014735  -0.014804
    13  H    3.077211   0.128744  -0.288631  -0.047302   0.040080  -0.074871
    14  H    0.128744   2.198215  -0.478936  -0.337398   0.126653  -0.036734
    15  H   -0.288631  -0.478936   2.325926   0.187908  -0.294757   0.059863
    16  H   -0.047302  -0.337398   0.187908   2.057159  -0.439961   0.166086
    17  H    0.040080   0.126653  -0.294757  -0.439961   1.903333  -0.192361
    18  H   -0.074871  -0.036734   0.059863   0.166086  -0.192361   1.843894
    19  H    0.048434   0.016449  -0.023138  -0.251300   0.065956  -0.428069
    20  H    0.010906  -0.013821  -0.002971   0.004942   0.006127   0.000997
    21  H   -0.000181  -0.001746   0.001339   0.000264  -0.000002   0.000130
    22  H    0.003669   0.000891   0.001394   0.000361   0.000106  -0.000242
    23  H   -0.070258   0.015208   0.002903   0.000899   0.000458   0.003829
    24  H    0.029412   0.007076  -0.002884  -0.007090  -0.000782  -0.003605
    25  H    0.039399   0.001254   0.000928  -0.000889   0.007360   0.004743
    26  H    0.005445  -0.001777   0.000653   0.006997  -0.002441  -0.001977
    27  H    0.003539  -0.001819  -0.000882   0.000531  -0.000466  -0.000043
    28  O    0.001080   0.000280  -0.000122  -0.000021   0.000002  -0.000027
    29  H    0.000108   0.000090  -0.000066  -0.000012   0.000002  -0.000005
    30  H   -0.000083   0.000059   0.000019  -0.000006  -0.000001   0.000004
    31  O    0.000025   0.000027   0.000010  -0.000001   0.000000  -0.000001
    32  H   -0.000034  -0.000005   0.000008   0.000001   0.000000   0.000001
    33  H   -0.000007   0.000002   0.000000  -0.000000  -0.000000  -0.000000
              19         20         21         22         23         24
     1  C    0.125946   0.066855   0.004347  -0.023009   0.142370   0.122787
     2  C    0.534860   0.133630   0.011440  -0.015088   0.049173   0.159866
     3  N   -0.682390  -0.231424   0.003773   0.001886   0.055958  -0.167726
     4  C   -0.104204   0.040324  -0.000984  -0.004102   0.012460  -0.071078
     5  C   -0.042687   0.008327  -0.000506   0.004032   0.000633  -0.067758
     6  C   -0.218128   0.135710   0.192387  -0.616006   0.089355   0.052376
     7  C   -0.012046   0.143957   0.038639   0.490401  -0.960866  -0.191590
     8  N    0.001875  -0.025862   0.015175  -0.009757   0.091828   0.022613
     9  C   -0.003011  -0.227525  -0.822674  -0.359485   0.004494  -0.008932
    10  C    0.002012   1.051937   0.289870  -0.162138   0.014242   0.055084
    11  C   -0.010309  -2.299250   0.051031   0.067372   0.030803  -0.043927
    12  C   -0.010376  -0.030249   0.002653  -0.002257   0.005871   0.249846
    13  H    0.048434   0.010906  -0.000181   0.003669  -0.070258   0.029412
    14  H    0.016449  -0.013821  -0.001746   0.000891   0.015208   0.007076
    15  H   -0.023138  -0.002971   0.001339   0.001394   0.002903  -0.002884
    16  H   -0.251300   0.004942   0.000264   0.000361   0.000899  -0.007090
    17  H    0.065956   0.006127  -0.000002   0.000106   0.000458  -0.000782
    18  H   -0.428069   0.000997   0.000130  -0.000242   0.003829  -0.003605
    19  H    2.475619   0.014289  -0.000147  -0.000269  -0.001252   0.006115
    20  H    0.014289   3.302103  -0.014729   0.017263  -0.021934   0.023971
    21  H   -0.000147  -0.014729   2.096661  -0.135160   0.006577  -0.000698
    22  H   -0.000269   0.017263  -0.135160   1.756636  -0.078699  -0.003156
    23  H   -0.001252  -0.021934   0.006577  -0.078699   2.398290   0.007035
    24  H    0.006115   0.023971  -0.000698  -0.003156   0.007035   2.120965
    25  H    0.007140   0.003155   0.000126   0.001992   0.001696  -0.409315
    26  H    0.015204  -0.003686   0.000310  -0.000043   0.001068  -0.542043
    27  H   -0.000648  -0.132730  -0.122317   0.013304  -0.001346   0.000725
    28  O    0.000008   0.001006  -0.001490   0.049665   0.001499   0.000055
    29  H    0.000007  -0.000028   0.000531  -0.008090   0.002631  -0.000006
    30  H    0.000004  -0.000086   0.005051  -0.010965   0.000878   0.000024
    31  O    0.000001  -0.000020   0.001942  -0.017463   0.000517   0.000064
    32  H   -0.000000  -0.000010   0.000041   0.003392  -0.000317   0.000004
    33  H    0.000000  -0.000007   0.000009   0.000227  -0.000028   0.000000
              25         26         27         28         29         30
     1  C   -0.026791  -0.055705  -0.010103  -0.001232   0.000202   0.000227
     2  C   -0.264535  -0.046912   0.017955  -0.001386   0.001218   0.002498
     3  N    0.220709  -0.269688  -0.003717   0.000293   0.000183  -0.000097
     4  C    0.012150   0.027636   0.001492   0.000112   0.000114   0.000048
     5  C    0.060638   0.046632   0.005212  -0.000141  -0.000079  -0.000038
     6  C    0.013330   0.103402  -0.371122  -0.098404  -0.002193   0.007734
     7  C    0.064066   0.026637   0.062518   0.108354  -0.003181  -0.010313
     8  N   -0.008762  -0.002838  -0.032837  -0.168391   0.006755   0.008069
     9  C    0.002455   0.004024   0.505577   0.016177  -0.004444  -0.007476
    10  C    0.000967  -0.004374  -1.289001  -0.038333   0.000545   0.007553
    11  C    0.022404  -0.038241   0.833149   0.043876   0.005331  -0.002273
    12  C    0.139414   0.363128  -0.008223  -0.000376  -0.000220   0.000034
    13  H    0.039399   0.005445   0.003539   0.001080   0.000108  -0.000083
    14  H    0.001254  -0.001777  -0.001819   0.000280   0.000090   0.000059
    15  H    0.000928   0.000653  -0.000882  -0.000122  -0.000066   0.000019
    16  H   -0.000889   0.006997   0.000531  -0.000021  -0.000012  -0.000006
    17  H    0.007360  -0.002441  -0.000466   0.000002   0.000002  -0.000001
    18  H    0.004743  -0.001977  -0.000043  -0.000027  -0.000005   0.000004
    19  H    0.007140   0.015204  -0.000648   0.000008   0.000007   0.000004
    20  H    0.003155  -0.003686  -0.132730   0.001006  -0.000028  -0.000086
    21  H    0.000126   0.000310  -0.122317  -0.001490   0.000531   0.005051
    22  H    0.001992  -0.000043   0.013304   0.049665  -0.008090  -0.010965
    23  H    0.001696   0.001068  -0.001346   0.001499   0.002631   0.000878
    24  H   -0.409315  -0.542043   0.000725   0.000055  -0.000006   0.000024
    25  H    1.558538  -0.279993  -0.001421   0.000029   0.000008  -0.000012
    26  H   -0.279993   1.879849   0.000266  -0.000041  -0.000029   0.000000
    27  H   -0.001421   0.000266   2.116859  -0.000939   0.000069  -0.000189
    28  O    0.000029  -0.000041  -0.000939   7.822675   0.341529   0.356511
    29  H    0.000008  -0.000029   0.000069   0.341529   0.566458  -0.110963
    30  H   -0.000012   0.000000  -0.000189   0.356511  -0.110963   0.603898
    31  O   -0.000015  -0.000002  -0.000018  -0.040246   0.001486   0.005743
    32  H    0.000003   0.000000   0.000005   0.001938  -0.000027  -0.000708
    33  H   -0.000003   0.000002   0.000007   0.003570  -0.004617  -0.000649
              31         32         33
     1  C    0.000064   0.000007   0.000002
     2  C    0.000604   0.000104   0.000083
     3  N   -0.000005  -0.000000  -0.000010
     4  C    0.000008  -0.000001   0.000001
     5  C   -0.000005   0.000007  -0.000002
     6  C    0.004235   0.000813   0.000412
     7  C   -0.005520  -0.002385   0.000390
     8  N   -0.001747   0.000637   0.000285
     9  C    0.007395  -0.000409  -0.000411
    10  C    0.001592   0.000519   0.000067
    11  C   -0.000577  -0.000522  -0.000241
    12  C   -0.000025   0.000019   0.000001
    13  H    0.000025  -0.000034  -0.000007
    14  H    0.000027  -0.000005   0.000002
    15  H    0.000010   0.000008   0.000000
    16  H   -0.000001   0.000001  -0.000000
    17  H    0.000000   0.000000  -0.000000
    18  H   -0.000001   0.000001  -0.000000
    19  H    0.000001  -0.000000   0.000000
    20  H   -0.000020  -0.000010  -0.000007
    21  H    0.001942   0.000041   0.000009
    22  H   -0.017463   0.003392   0.000227
    23  H    0.000517  -0.000317  -0.000028
    24  H    0.000064   0.000004   0.000000
    25  H   -0.000015   0.000003  -0.000003
    26  H   -0.000002   0.000000   0.000002
    27  H   -0.000018   0.000005   0.000007
    28  O   -0.040246   0.001938   0.003570
    29  H    0.001486  -0.000027  -0.004617
    30  H    0.005743  -0.000708  -0.000649
    31  O    7.707044   0.346816   0.350350
    32  H    0.346816   0.546196  -0.069774
    33  H    0.350350  -0.069774   0.554704
 Mulliken charges:
               1
     1  C    0.908525
     2  C    0.765579
     3  N   -0.435792
     4  C    1.189965
     5  C    0.670845
     6  C    1.280393
     7  C    0.614627
     8  N   -0.028343
     9  C    0.718464
    10  C    0.212340
    11  C    1.143443
    12  C    0.841072
    13  H   -0.795407
    14  H   -0.441242
    15  H   -0.374784
    16  H   -0.331515
    17  H   -0.282136
    18  H   -0.383301
    19  H   -0.525950
    20  H   -0.961169
    21  H   -0.621662
    22  H    0.033338
    23  H   -0.805972
    24  H   -0.337430
    25  H   -0.170766
    26  H   -0.231463
    27  H   -0.583387
    28  O   -0.397512
    29  H    0.206693
    30  H    0.145507
    31  O   -0.362277
    32  H    0.173682
    33  H    0.165635
 Sum of Mulliken charges =   1.00000
 Mulliken charges with hydrogens summed into heavy atoms:
               1
     1  C    0.092499
     2  C   -0.029829
     3  N   -0.435792
     4  C    0.280715
     5  C    0.057193
     6  C    1.280393
     7  C   -0.191345
     8  N    0.004995
     9  C    0.096802
    10  C   -0.371047
    11  C    0.182274
    12  C    0.101413
    28  O   -0.045312
    31  O   -0.022960
 Electronic spatial extent (au):  <R**2>=           4786.3887
 Charge=              1.0000 electrons
 Dipole moment (field-independent basis, Debye):
    X=              7.7057    Y=              0.2172    Z=              0.2163  Tot=              7.7118
 Quadrupole moment (field-independent basis, Debye-Ang):
   XX=            -13.1924   YY=            -62.8436   ZZ=            -74.9182
   XY=             -8.2221   XZ=              2.1422   YZ=              2.4787
 Traceless Quadrupole moment (field-independent basis, Debye-Ang):
   XX=             37.1256   YY=            -12.5255   ZZ=            -24.6001
   XY=             -8.2221   XZ=              2.1422   YZ=              2.4787
 Octapole moment (field-independent basis, Debye-Ang**2):
  XXX=            342.8292  YYY=             -8.1437  ZZZ=             -7.6601  XYY=             74.2596
  XXY=            -97.1360  XXZ=             14.9843  XZZ=             34.4509  YZZ=             -2.9795
  YYZ=             18.0472  XYZ=             -9.4920
 Hexadecapole moment (field-independent basis, Debye-Ang**3):
 XXXX=          -2171.2774 YYYY=           -680.3447 ZZZZ=           -545.5940 XXXY=           -602.3290
 XXXZ=            184.4247 YYYX=           -186.9921 YYYZ=             39.9723 ZZZX=            -50.2411
 ZZZY=             -5.3083 XXYY=           -547.9927 XXZZ=           -652.2488 YYZZ=           -215.8743
 XXYZ=           -100.3921 YYXZ=             26.9525 ZZXY=             -8.3586
 N-N= 9.060117804540D+02 E-N=-3.316333754661D+03  KE= 6.480073015046D+02
 Calling FoFJK, ICntrl=      2127 FMM=F ISym2X=0 I1Cent= 0 IOpClX= 0 NMat=1 NMatS=1 NMatT=0.
 ***** Axes restored to original set *****
 -------------------------------------------------------------------
 Center     Atomic                   Forces (Hartrees/Bohr)
 Number     Number              X              Y              Z
 -------------------------------------------------------------------
      1        6          -0.000085459    0.000030585    0.000097080
      2        6           0.000384365    0.000129289   -0.000306093
      3        7          -0.000434960   -0.000106065    0.000194348
      4        6           0.000189031    0.000140319    0.000082751
      5        6           0.000040994   -0.000063416   -0.000041537
      6        6           0.000015730    0.000300659   -0.000035526
      7        6           0.000846457    0.000635320   -0.000159232
      8        7          -0.002206058    0.001382487   -0.000344948
      9        6          -0.000185970   -0.001073341    0.000304095
     10        6          -0.000343076    0.000091405   -0.000024505
     11        6           0.000016681   -0.000117792    0.000018491
     12        6           0.000010809    0.000081565   -0.000186825
     13        1          -0.000064073   -0.000002115    0.000011801
     14        1           0.000011426   -0.000009736    0.000078478
     15        1          -0.000011160   -0.000004270   -0.000004483
     16        1          -0.000011818    0.000018852    0.000000074
     17        1          -0.000053116   -0.000006837   -0.000000564
     18        1          -0.000023311   -0.000077703    0.000024739
     19        1          -0.000054846    0.000017142    0.000018318
     20        1           0.000085353    0.000039113   -0.000029706
     21        1           0.000052536   -0.000263032    0.000062116
     22        1           0.004967212   -0.003059675    0.000954548
     23        1           0.000267661    0.000059552   -0.000036887
     24        1          -0.000005721   -0.000049422   -0.000064870
     25        1          -0.000003501   -0.000067853    0.000021419
     26        1          -0.000048314    0.000007479    0.000008655
     27        1          -0.000064764    0.000002279   -0.000009501
     28        8          -0.006357308    0.001943804   -0.016811304
     29        1           0.002871584   -0.002387583    0.015099535
     30        1          -0.001733944    0.001483899    0.000182055
     31        8           0.002249154    0.001074332    0.004435608
     32        1           0.006672340    0.009667582   -0.002641001
     33        1          -0.006993932   -0.009816824   -0.000897128
 -------------------------------------------------------------------
 Cartesian Forces:  Max     0.016811304 RMS     0.003075258

 GradGradGradGradGradGradGradGradGradGradGradGradGradGradGradGradGradGrad
 Berny optimization.
 FormGI is forming the generalized inverse of G from B-inverse, IUseBI=4.
 Internal  Forces:  Max     0.016294461 RMS     0.001880749
 Search for a local minimum.
 Step number   1 out of a maximum of  188
 All quantities printed in internal units (Hartrees-Bohrs-Radians)
 Mixed Optimization -- RFO/linear search
 Second derivative matrix not updated -- first step.
 ITU=  0
     Eigenvalues ---    0.00230   0.00230   0.00230   0.00230   0.00339
     Eigenvalues ---    0.00625   0.00642   0.00921   0.00970   0.01011
     Eigenvalues ---    0.01536   0.01543   0.01910   0.02126   0.02169
     Eigenvalues ---    0.02218   0.02244   0.02293   0.02344   0.02370
     Eigenvalues ---    0.02419   0.02584   0.03510   0.04566   0.04833
     Eigenvalues ---    0.05034   0.05220   0.05548   0.06000   0.06362
     Eigenvalues ---    0.06685   0.06834   0.06952   0.06989   0.07175
     Eigenvalues ---    0.07267   0.07585   0.08354   0.09401   0.10412
     Eigenvalues ---    0.12991   0.15879   0.15979   0.15998   0.15998
     Eigenvalues ---    0.16000   0.16000   0.16000   0.16000   0.16000
     Eigenvalues ---    0.16000   0.16000   0.16000   0.16000   0.18427
     Eigenvalues ---    0.20640   0.22000   0.22000   0.23457   0.24992
     Eigenvalues ---    0.25000   0.26373   0.26745   0.28902   0.31286
     Eigenvalues ---    0.32546   0.32725   0.32794   0.33859   0.34066
     Eigenvalues ---    0.34106   0.34137   0.34152   0.34158   0.34271
     Eigenvalues ---    0.34701   0.34799   0.35033   0.35105   0.35144
     Eigenvalues ---    0.35692   0.38050   0.41739   0.42990   0.43773
     Eigenvalues ---    0.46880   0.48354   0.53377   0.53377   0.53749
     Eigenvalues ---    0.55128   0.55129   0.55791
 RFO step:  Lambda=-1.83919854D-03 EMin= 2.30000000D-03
 Linear search not attempted -- first point.
 Iteration  1 RMS(Cart)=  0.04073660 RMS(Int)=  0.00067128
 Iteration  2 RMS(Cart)=  0.00111818 RMS(Int)=  0.00012399
 Iteration  3 RMS(Cart)=  0.00000080 RMS(Int)=  0.00012399
 Variable       Old X    -DE/DX   Delta X   Delta X   Delta X     New X
                                 (Linear)    (Quad)   (Total)
    R1        2.93390  -0.00006   0.00000  -0.00025  -0.00025   2.93365
    R2        2.92128   0.00002   0.00000   0.00010   0.00010   2.92137
    R3        2.07219  -0.00006   0.00000  -0.00017  -0.00017   2.07202
    R4        2.07065   0.00000   0.00000   0.00001   0.00001   2.07066
    R5        2.74688   0.00025   0.00000   0.00063   0.00063   2.74751
    R6        2.85470   0.00012   0.00000   0.00037   0.00037   2.85507
    R7        2.09856   0.00000   0.00000   0.00000   0.00000   2.09856
    R8        2.76161  -0.00016   0.00000  -0.00046  -0.00046   2.76115
    R9        2.74292  -0.00023   0.00000  -0.00059  -0.00059   2.74233
   R10        2.88538   0.00001   0.00000   0.00005   0.00005   2.88543
   R11        2.09538   0.00008   0.00000   0.00025   0.00025   2.09563
   R12        2.07152   0.00005   0.00000   0.00016   0.00016   2.07168
   R13        2.07075   0.00002   0.00000   0.00005   0.00005   2.07080
   R14        2.06875   0.00004   0.00000   0.00011   0.00011   2.06886
   R15        2.61583   0.00026   0.00000   0.00053   0.00053   2.61636
   R16        2.64844  -0.00027   0.00000  -0.00047  -0.00047   2.64798
   R17        2.54383  -0.00115   0.00000  -0.00216  -0.00216   2.54167
   R18        2.05622  -0.00006   0.00000  -0.00016  -0.00016   2.05606
   R19        2.53577  -0.00112   0.00000  -0.00207  -0.00207   2.53371
   R20        1.95956   0.00203   0.00000   0.00483   0.00483   1.96439
   R21        2.61541   0.00033   0.00000   0.00068   0.00068   2.61610
   R22        2.05441  -0.00005   0.00000  -0.00015  -0.00015   2.05426
   R23        2.63124  -0.00027   0.00000  -0.00045  -0.00045   2.63079
   R24        2.05505  -0.00000   0.00000  -0.00000  -0.00000   2.05504
   R25        2.06003  -0.00005   0.00000  -0.00014  -0.00014   2.05989
   R26        2.07569  -0.00004   0.00000  -0.00011  -0.00011   2.07558
   R27        2.09415   0.00007   0.00000   0.00021   0.00021   2.09436
   R28        2.07100   0.00004   0.00000   0.00012   0.00012   2.07112
   R29        3.24322  -0.00388   0.00000  -0.05279  -0.05279   3.19043
   R30        1.81718   0.01629   0.00000   0.02946   0.02946   1.84663
   R31        1.81719  -0.00180   0.00000  -0.00325  -0.00325   1.81394
   R32        3.31214   0.00120   0.00000   0.01750   0.01750   3.32963
   R33        1.83303  -0.01089   0.00000  -0.02034  -0.02034   1.81269
   R34        1.83303  -0.01052   0.00000  -0.01965  -0.01965   1.81339
    A1        1.82590   0.00010   0.00000   0.00030   0.00030   1.82620
    A2        1.93903  -0.00007   0.00000  -0.00051  -0.00051   1.93852
    A3        1.92235  -0.00001   0.00000   0.00004   0.00004   1.92240
    A4        1.94311   0.00002   0.00000   0.00030   0.00030   1.94341
    A5        1.96404  -0.00006   0.00000  -0.00021  -0.00021   1.96383
    A6        1.87062   0.00002   0.00000   0.00006   0.00006   1.87068
    A7        1.82551  -0.00014   0.00000  -0.00056  -0.00056   1.82495
    A8        1.96635   0.00007   0.00000   0.00104   0.00104   1.96738
    A9        1.90551   0.00001   0.00000  -0.00061  -0.00061   1.90490
   A10        1.94139   0.00019   0.00000   0.00193   0.00193   1.94332
   A11        1.93895  -0.00005   0.00000  -0.00126  -0.00126   1.93769
   A12        1.88632  -0.00008   0.00000  -0.00059  -0.00059   1.88574
   A13        1.84072   0.00010   0.00000   0.00025   0.00025   1.84097
   A14        1.99024  -0.00005   0.00000  -0.00021  -0.00021   1.99003
   A15        1.98752  -0.00005   0.00000  -0.00014  -0.00014   1.98738
   A16        1.80629  -0.00002   0.00000  -0.00022  -0.00022   1.80607
   A17        1.93549   0.00002   0.00000   0.00015   0.00015   1.93564
   A18        1.92378   0.00000   0.00000   0.00021   0.00021   1.92399
   A19        1.93237  -0.00002   0.00000  -0.00016  -0.00016   1.93221
   A20        1.98236   0.00001   0.00000   0.00009   0.00009   1.98245
   A21        1.88369  -0.00001   0.00000  -0.00005  -0.00005   1.88364
   A22        1.81528  -0.00002   0.00000  -0.00013  -0.00013   1.81514
   A23        1.92644   0.00002   0.00000   0.00009   0.00009   1.92653
   A24        1.96039   0.00002   0.00000   0.00035   0.00035   1.96074
   A25        1.92251  -0.00000   0.00000  -0.00014  -0.00014   1.92237
   A26        1.95733  -0.00001   0.00000  -0.00012  -0.00012   1.95721
   A27        1.88208  -0.00001   0.00000  -0.00005  -0.00005   1.88202
   A28        2.11978  -0.00007   0.00000  -0.00040  -0.00040   2.11938
   A29        2.11339   0.00016   0.00000   0.00053   0.00053   2.11392
   A30        2.04976  -0.00009   0.00000  -0.00016  -0.00016   2.04960
   A31        2.10527   0.00026   0.00000   0.00087   0.00087   2.10614
   A32        2.14971   0.00015   0.00000   0.00128   0.00128   2.15099
   A33        2.02820  -0.00041   0.00000  -0.00215  -0.00215   2.02605
   A34        2.14352  -0.00004   0.00000  -0.00066  -0.00066   2.14286
   A35        2.06880   0.00009   0.00000   0.00079   0.00079   2.06959
   A36        2.07084  -0.00006   0.00000  -0.00013  -0.00013   2.07072
   A37        2.08395   0.00024   0.00000   0.00086   0.00086   2.08482
   A38        2.03589  -0.00040   0.00000  -0.00215  -0.00215   2.03375
   A39        2.16333   0.00016   0.00000   0.00129   0.00129   2.16461
   A40        2.07608  -0.00012   0.00000  -0.00025  -0.00025   2.07583
   A41        2.08757   0.00012   0.00000   0.00054   0.00054   2.08811
   A42        2.11954  -0.00001   0.00000  -0.00029  -0.00029   2.11925
   A43        2.10772  -0.00026   0.00000  -0.00067  -0.00067   2.10705
   A44        2.06217   0.00022   0.00000   0.00087   0.00087   2.06304
   A45        2.11320   0.00004   0.00000  -0.00019  -0.00019   2.11300
   A46        1.92747  -0.00009   0.00000  -0.00055  -0.00055   1.92692
   A47        1.95867  -0.00001   0.00000  -0.00014  -0.00014   1.95853
   A48        1.91146   0.00001   0.00000   0.00015   0.00015   1.91160
   A49        1.89204   0.00003   0.00000   0.00002   0.00002   1.89206
   A50        1.88036   0.00006   0.00000   0.00047   0.00047   1.88083
   A51        1.89184   0.00001   0.00000   0.00009   0.00009   1.89193
   A52        2.21716  -0.00080   0.00000  -0.00510  -0.00518   2.21198
   A53        2.21400  -0.00087   0.00000  -0.00554  -0.00562   2.20838
   A54        1.85175   0.00167   0.00000   0.01014   0.01006   1.86181
   A55        2.86330   0.00576   0.00000   0.02289   0.02289   2.88619
   A56        2.19904   0.00254   0.00000   0.01426   0.01368   2.21271
   A57        2.17061   0.00411   0.00000   0.02410   0.02342   2.19403
   A58        1.91063  -0.00671   0.00000  -0.04298  -0.04353   1.86710
   A59        3.14299   0.00008   0.00000   0.02949   0.02949   3.17248
   A60        3.14007  -0.00010   0.00000  -0.02678  -0.02690   3.11317
    D1       -0.28453   0.00008   0.00000  -0.00001  -0.00001  -0.28454
    D2       -2.39549  -0.00010   0.00000  -0.00257  -0.00257  -2.39807
    D3        1.79183  -0.00006   0.00000  -0.00208  -0.00208   1.78975
    D4        1.81399   0.00012   0.00000   0.00026   0.00026   1.81425
    D5       -0.29697  -0.00007   0.00000  -0.00230  -0.00230  -0.29927
    D6       -2.39283  -0.00002   0.00000  -0.00181  -0.00181  -2.39464
    D7       -2.39920   0.00009   0.00000   0.00004   0.00004  -2.39916
    D8        1.77302  -0.00009   0.00000  -0.00252  -0.00252   1.77050
    D9       -0.32284  -0.00004   0.00000  -0.00203  -0.00203  -0.32487
   D10       -0.16110  -0.00002   0.00000  -0.00008  -0.00008  -0.16118
   D11        1.90061  -0.00002   0.00000  -0.00027  -0.00027   1.90033
   D12       -2.28160  -0.00000   0.00000  -0.00004  -0.00004  -2.28164
   D13       -2.25690   0.00000   0.00000   0.00019   0.00019  -2.25671
   D14       -0.19519   0.00000   0.00000  -0.00000  -0.00000  -0.19519
   D15        1.90579   0.00002   0.00000   0.00023   0.00023   1.90602
   D16        1.92577   0.00000   0.00000   0.00005   0.00005   1.92582
   D17       -2.29570  -0.00000   0.00000  -0.00015  -0.00015  -2.29585
   D18       -0.19472   0.00001   0.00000   0.00009   0.00009  -0.19464
   D19        0.64961  -0.00003   0.00000   0.00035   0.00035   0.64997
   D20        2.84307  -0.00005   0.00000   0.00023   0.00023   2.84330
   D21        2.77704   0.00007   0.00000   0.00232   0.00232   2.77935
   D22       -1.31269   0.00005   0.00000   0.00219   0.00219  -1.31050
   D23       -1.40399   0.00006   0.00000   0.00202   0.00202  -1.40197
   D24        0.78947   0.00004   0.00000   0.00189   0.00189   0.79136
   D25       -1.75108  -0.00001   0.00000  -0.00087  -0.00087  -1.75195
   D26        1.36555  -0.00003   0.00000  -0.00201  -0.00201   1.36355
   D27        2.48874  -0.00000   0.00000  -0.00213  -0.00213   2.48661
   D28       -0.67782  -0.00003   0.00000  -0.00326  -0.00327  -0.68108
   D29        0.35581  -0.00000   0.00000  -0.00139  -0.00139   0.35442
   D30       -2.81075  -0.00002   0.00000  -0.00252  -0.00252  -2.81327
   D31       -0.75882  -0.00001   0.00000  -0.00049  -0.00049  -0.75932
   D32        1.31377  -0.00002   0.00000  -0.00074  -0.00074   1.31303
   D33       -2.88448  -0.00001   0.00000  -0.00058  -0.00058  -2.88506
   D34       -2.95397   0.00002   0.00000  -0.00032  -0.00032  -2.95429
   D35       -0.88137   0.00000   0.00000  -0.00056  -0.00056  -0.88194
   D36        1.20356   0.00001   0.00000  -0.00040  -0.00040   1.20316
[...]
 00011069,-0.00010346,-0.00017800,-0.00026728,-0.00051243,0.00038400,0.
 00038923,0.00028951,-0.00009883,-0.00015166,-0.00014194,-0.00009238,-0
 .00001214,0.00007452,0.00005734,0.00059324,0.00062973,-0.00034632,-0.0
 0037635,-0.00365983,0.00106204,0.01480179,-0.00567942,0.00413416,0.000
 71302,0.00190848,-0.00048820,0.00082556,-0.00048283,0.00007956,-0.0002
 6681,-0.00009106,0.00004878,-0.00004305,-0.00011817,0.00018380,0.00009
 034,0.00008744,-0.00008290,-0.00000983,-0.00000968,-0.00007463,0.00004
 105,0.00006107,0.00001834,0.00000502,-0.00001063,-0.00000380,0.0000631
 4,0.00000517,0.00000683,0.00004028,0.00007553,-0.00002915,0.00004683,-
 0.00000065,-0.00000183,-0.00004985,0.00002041,0.00001203,-0.00035453,0
 .00050688,-0.00018102,-0.00114550,-0.00499737,-0.00296070,0.00048240,0
 .00007429,-0.00008059,0.00002300,0.00002972,0.00006099,0.00002126,0.00
 008158,-0.00002900,0.00003309,-0.00000395,-0.00001686,0.00017114,-0.00
 006565,-0.00000511,-0.21404317,0.19644083,-0.00006267,0.00000311,0.000
 05731,0.00021724,0.00020964,-0.00027291,-0.00017779,-0.00009365,0.0001
 8952,0.00004539,0.00009232,0.00003387,0.00003696,-0.00003110,-0.000008
 15,-0.00020313,-0.00015696,-0.00032741,0.00049065,0.00136301,-0.000220
 05,-0.00539110,0.00465768,0.00671140,-0.00041033,-0.00090540,0.0004083
 8,-0.00032031,0.00010779,-0.00043122,0.00005198,-0.00001706,0.00001427
 ,-0.00003791,0.00004015,-0.00021840,-0.00005344,-0.00004094,0.00002451
 ,0.00000945,-0.00003783,0.00006552,0.00000763,0.00001911,-0.00001222,-
 0.00001054,0.00000921,0.00000487,-0.00003126,-0.00000196,0.00000204,-0
 .00001642,-0.00004855,0.00001927,-0.00003406,0.00000835,0.00000884,0.0
 0003854,0.00001009,0.00002565,0.00010876,-0.00028663,-0.00016943,0.001
 93950,-0.00462706,-0.01631522,-0.00003335,-0.00008110,-0.00023239,0.00
 001333,0.00001113,-0.00004815,-0.00002418,-0.00007677,0.00003631,-0.00
 002154,0.00000193,0.00002570,-0.00008054,0.00000822,-0.00007620,0.0254
 3425,0.16423129,0.63836669,0.00003055,-0.00001629,-0.00004906,-0.00014
 700,0.00002980,0.00007963,0.00015137,-0.00000002,-0.00003820,-0.000069
 39,-0.00004495,-0.00003460,-0.00002212,0.00002709,0.00001398,-0.000084
 40,-0.00032772,0.00005086,-0.00023539,0.00013198,-0.00006151,-0.000817
 89,0.00136433,0.00015489,-0.00017352,0.00035024,-0.00003443,0.00005496
 ,0.00006297,-0.00009604,0.00008018,0.00009519,-0.00001975,-0.00000330,
 -0.00001410,0.00005276,0.00001550,-0.00002180,0.00001061,-0.00000534,0
 .00000537,-0.00002215,-0.00000072,-0.00000324,-0.00000215,0.00000895,-
 0.00001218,0.00000001,0.00002076,0.00000605,0.00000073,0.00000928,0.00
 002662,-0.00000551,0.00002193,-0.00000858,-0.00000477,-0.00001844,-0.0
 0001126,0.00001385,0.00001985,0.00015267,0.00002757,-0.00034566,-0.001
 46730,-0.00221137,-0.00018504,-0.00008950,-0.00006347,0.00000137,0.000
 02852,0.00002180,-0.00000804,0.00001370,-0.00000501,0.00002571,-0.0000
 0998,-0.00000056,0.00000603,0.00000815,-0.00000423,-0.14256485,0.02962
 121,-0.19480699,0.13682745,-0.00000864,0.00001625,0.00001465,0.0000032
 2,0.00002010,-0.00002557,-0.00001367,-0.00004599,0.00000850,0.00001688
 ,0.00001479,-0.00000274,0.00000116,-0.00000499,-0.00000593,0.00021523,
 -0.00003228,0.00010149,-0.00001915,-0.00026758,0.00001296,0.00283496,-
 0.00122703,-0.00035141,0.00039310,0.00028808,0.00000044,-0.00017973,-0
 .00016973,0.00002506,0.00004216,0.00008915,-0.00001866,0.00002010,0.00
 003006,-0.00000814,-0.00000905,-0.00001427,0.00001436,-0.00000055,-0.0
 0000202,0.00000759,-0.00000146,-0.00000674,-0.00000485,0.00000029,-0.0
 0000150,0.00000098,-0.00000508,-0.00000016,-0.00000196,-0.00000361,-0.
 00000684,0.00000557,0.00000004,-0.00000056,0.00000073,-0.00000221,-0.0
 0000577,-0.00000433,-0.00000089,-0.00007488,0.00017167,-0.00366565,0.0
 0218329,0.00215806,-0.00001956,0.00002971,-0.00008336,-0.00000643,-0.0
 0000380,-0.00000098,-0.00000528,-0.00001104,0.00000083,-0.00000069,-0.
 00000234,-0.00000027,0.00003917,-0.00002560,0.00001750,0.04155146,-0.0
 2990656,0.02916439,-0.02675888,0.03629365,0.00008025,-0.00002032,-0.00
 010633,-0.00029904,-0.00018271,0.00027227,0.00029121,0.00008928,-0.000
 18089,-0.00009549,-0.00011142,-0.00006646,-0.00004176,0.00004826,0.000
 02570,0.00012489,-0.00021687,0.00005116,-0.00087959,-0.00089022,0.0002
 4337,0.00467846,-0.00352051,0.00019939,0.00050261,0.00107999,-0.000312
 62,0.00035360,-0.00024266,0.00011737,0.00001400,0.00007596,0.00000080,
 0.00002588,-0.00004694,0.00022693,0.00005909,0.00001864,-0.00001330,-0
 .00001081,0.00002100,-0.00006754,0.00000023,-0.00000805,0.00000561,0.0
 0001490,-0.00001687,-0.00000446,0.00004306,0.00000540,-0.00000104,0.00
 002359,0.00006251,-0.00001877,0.00004602,-0.00001122,-0.00000866,-0.00
 004565,-0.00001553,0.00001904,-0.00011413,0.00028258,0.00002849,-0.009
 71110,0.00743861,0.00015587,-0.00027051,0.00006388,0.00014802,-0.00000
 867,0.00001325,0.00006422,0.00001541,0.00007688,-0.00003371,0.00003872
 ,-0.00001023,-0.00002135,0.00009321,-0.00002997,0.00003544,-0.15269319
 ,0.00207277,-0.34580529,0.16722195,-0.00896181,0.36482404,0.00000180,0
 .00001856,0.00000866,-0.00003571,0.00008471,-0.00000856,0.00001486,-0.
 00004191,-0.00001786,-0.00000765,-0.00000457,-0.00000114,-0.00001557,0
 .00000050,-0.00000699,-0.00011803,-0.00022873,0.00010161,0.00010729,0.
 00051347,-0.00013497,-0.00215282,0.00190229,-0.00147520,-0.00037859,-0
 .00015184,-0.00004811,-0.00007248,0.00019928,0.00003145,0.00007528,0.0
 0006680,-0.00001565,0.00000853,0.00001135,0.00001277,-0.00000364,-0.00
 001811,0.00001972,-0.00000310,0.00001160,-0.00000725,-0.00001406,-0.00
 002153,-0.00000325,0.00000561,-0.00000627,0.00000007,0.00000147,0.0000
 0327,-0.00000118,-0.00000237,0.00000385,0.00000103,0.00000553,-0.00000
 646,-0.00000414,-0.00000257,-0.00000834,-0.00000604,0.00004725,0.00004
 402,-0.00003266,0.00240646,-0.00171386,0.00420046,-0.00010141,-0.00002
 629,0.00014811,-0.00000268,0.00000389,0.00000182,-0.00000360,-0.000000
 64,-0.00000108,0.00000545,-0.00000332,-0.00000185,-0.00003172,0.000025
 92,0.00000530,-0.17616253,0.16751486,0.18561782,0.01187346,-0.01201417
 ,-0.01445141,0.16603859,-0.00001636,0.00003461,0.00002436,0.00001958,0
 .00002922,-0.00006559,-0.00002823,-0.00005506,0.00000921,0.00002496,0.
 00002259,0.00000641,-0.00000021,-0.00001245,-0.00001066,0.00016706,-0.
 00006353,-0.00001927,0.00007295,-0.00007680,0.00010946,0.00138700,0.00
 007842,0.00044485,0.00030115,0.00015745,-0.00008111,-0.00022791,-0.000
 10961,0.00004179,0.00005072,0.00008386,-0.00003363,0.00001294,0.000025
 45,-0.00001375,-0.00001299,-0.00001461,0.00001922,0.00000129,-0.000001
 78,0.00001057,-0.00000769,-0.00001526,-0.00000342,0.00000104,-0.000001
 38,0.00000068,-0.00001090,0.00000039,-0.00000143,-0.00000469,-0.000010
 33,0.00000667,-0.00000324,-0.00000118,-0.00000053,0.00000214,-0.000001
 13,0.00000396,0.00003437,-0.00016568,-0.00008822,-0.00111015,-0.000890
 43,-0.00182822,0.00000610,0.00006174,0.00008739,-0.00000771,-0.0000063
 2,-0.00000517,-0.00000255,-0.00001077,0.00000252,-0.00000209,-0.000000
 74,0.00000045,0.00002315,-0.00001708,0.00000225,0.15578518,-0.15889216
 ,-0.19521492,-0.00035966,0.00125662,0.00337072,-0.15671724,0.15877721,
 -0.00001761,0.00001082,0.00004063,0.00004613,0.00004645,-0.00002098,-0
 .00008100,-0.00002040,-0.00003128,0.00003700,0.00001302,0.00002855,-0.
 00000404,-0.00001348,-0.00001599,-0.00016762,0.00005974,0.00003848,0.0
 0018928,0.00040179,-0.00014560,-0.00360878,0.00188942,-0.00152530,-0.0
 0035881,-0.00037212,0.00010190,-0.00003143,0.00018282,-0.00003214,-0.0
 0001299,-0.00004209,0.00002324,0.00001365,0.00000571,0.00000988,-0.000
 00637,0.00000670,-0.00000189,0.00000004,0.00002052,0.00000198,-0.00001
 367,-0.00001910,0.00000565,-0.00000134,0.00000529,-0.00000052,-0.00001
 015,-0.00000251,-0.00000076,-0.00000600,-0.00000795,-0.00000140,-0.000
 00769,-0.00000086,-0.00000193,0.00000696,0.00000539,-0.00000088,0.0000
 5969,0.00000918,0.00011651,0.00588055,-0.00293533,0.00360976,0.0000823
 6,-0.00004022,0.00006725,-0.00000731,-0.00001387,-0.00000796,0.0000043
 6,0.00000365,-0.00000319,-0.00000644,0.00000318,-0.00000257,-0.0000460
 1,0.00003279,0.00000817,0.14577690,-0.16957622,-0.26277325,0.02588579,
 -0.02264785,-0.02041697,-0.17236714,0.19225738,0.28124237,-0.00002476,
 0.00001488,0.00004026,0.00010241,-0.00001842,-0.00004544,-0.00014011,0
 .00000397,-0.00002213,0.00007667,0.00002956,0.00003443,0.00001357,-0.0
 0002316,-0.00001169,0.00000389,0.00019387,-0.00004853,0.00032338,0.000
 09099,-0.00000415,-0.00072656,0.00039158,-0.00008628,-0.00017238,-0.00
 030686,0.00008548,0.00000095,0.00003818,-0.00001502,-0.00003763,-0.000
 09316,0.00002856,0.00001982,0.00000538,0.00000642,-0.00000790,0.000027
 25,-0.00001145,0.00000226,0.00000184,0.00001416,-0.00000208,-0.0000028
 2,0.00000259,-0.00000641,0.00001210,-0.00000264,-0.00001748,-0.0000073
 8,-0.00000243,-0.00000902,-0.00001856,0.00000315,-0.00001654,0.0000060
 4,0.00000406,0.00001477,0.00000555,0.00000170,-0.00002036,-0.00005000,
 0.00002245,0.00133542,-0.00095519,0.00029453,0.00010630,0.00002582,0.0
 0006926,-0.00001008,-0.00003669,-0.00000762,0.00001621,0.00000780,-0.0
 0000273,-0.00001937,0.00000936,-0.00000483,-0.00002670,0.00000426,0.00
 000387,-0.00147152,0.00208795,-0.01110119,-0.00526376,-0.00459907,0.00
 225160,-0.00143424,0.00049795,-0.00084387,0.42553275,0.00001699,-0.000
 02382,-0.00002769,-0.00002018,-0.00006881,0.00005702,0.00005217,0.0000
 7471,-0.00000206,-0.00003890,-0.00003020,-0.00000322,-0.00000046,0.000
 01028,0.00001063,-0.00008191,0.00009182,-0.00004653,0.00002546,-0.0001
 4651,0.00001525,-0.00009722,-0.00003884,0.00006019,-0.00015849,0.00007
 196,-0.00004008,0.00014205,0.00004842,0.00000510,-0.00006349,-0.000057
 00,0.00001472,-0.00003338,-0.00004798,0.00000909,0.00001278,0.00001952
 ,-0.00002007,-0.00000193,0.00000011,-0.00001118,0.00000429,0.00001263,
 0.00000562,-0.00000022,-0.00000019,-0.00000117,0.00001088,0.00000163,0
 .00000315,0.00000646,0.00001446,-0.00000898,0.00000351,0.00000148,-0.0
 0000103,-0.00000699,-0.00000031,-0.00000300,-0.00002343,0.00001917,-0.
 00010606,0.00009407,-0.00019809,-0.00012504,0.00003590,-0.00002879,0.0
 0001627,0.00001382,0.00000850,0.00000156,0.00000660,0.00001643,-0.0000
 0025,-0.00000061,0.00000241,-0.00000066,-0.00001219,0.00000711,-0.0000
 1766,0.00197944,0.00530392,0.00159716,-0.00453810,-0.00973658,0.000607
 87,0.00051426,-0.00046035,0.00074013,0.24130111,0.50067071,-0.00004331
 ,0.00000949,0.00005648,0.00017596,0.00008432,-0.00015505,-0.00015506,-
 0.00004109,0.00012260,0.00004494,0.00006269,0.00003488,0.00002468,-0.0
 0002657,-0.00001418,-0.00002550,0.00012161,-0.00001242,0.00043121,0.00
 041266,-0.00011527,-0.00172493,0.00120425,-0.00015445,-0.00014726,-0.0
 0057537,0.00014073,-0.00019911,0.00009457,-0.00002953,-0.00000760,-0.0
 0003237,-0.00000841,-0.00002221,0.00002542,-0.00014458,-0.00003306,-0.
 00000990,0.00000458,0.00000485,-0.00001298,0.00003909,0.00000101,0.000
 00783,-0.00000288,-0.00000860,0.00000859,0.00000339,-0.00002262,-0.000
 00190,0.00000124,-0.00001223,-0.00003565,0.00001039,-0.00002591,0.0000
 0710,0.00000422,0.00002571,0.00000824,-0.00001517,0.00006520,-0.000145
 63,-0.00001004,0.00370874,-0.00259647,0.00021668,0.00013593,-0.0000258
 9,-0.00006765,0.00001006,-0.00000353,-0.00003988,-0.00001095,-0.000049
 88,0.00002068,-0.00002400,0.00000557,0.00001223,-0.00004042,0.00000811
 ,-0.00001971,-0.01121180,0.00184262,-0.01453593,0.00245579,0.00037015,
 -0.00549284,-0.00084999,0.00074835,0.00037304,0.13921873,-0.21105313,0
 .29148373,-0.00000251,-0.00000114,-0.00000041,-0.00000515,0.00006015,-
 0.00003325,0.00002413,-0.00003571,0.00004552,-0.00002183,0.00000777,-0
 .00000980,-0.00000165,0.00000232,0.00000006,-0.00000104,-0.00007961,0.
 00002985,-0.00001689,0.00013297,-0.00003505,-0.00012328,0.00012503,-0.
 00001610,0.00004658,-0.00005970,0.00001329,-0.00007437,0.00000194,-0.0
 0000206,0.00002810,0.00004650,-0.00001823,-0.00000573,0.00002022,-0.00
 004494,-0.00000750,-0.00002489,0.00001445,0.00000056,-0.00000483,0.000
 00607,0.00000007,0.00000037,-0.00000406,0.00000116,-0.00000447,0.00000
 266,0.00000102,0.00000358,0.00000076,-0.00000006,-0.00000236,0.0000032
 5,0.00000155,-0.00000252,-0.00000066,0.00000177,-0.00000075,-0.0000035
 3,0.00001480,-0.00001966,0.00000587,0.00041029,-0.00016894,-0.00002261
 ,-0.00002579,-0.00000605,-0.00006219,0.00000470,0.00001609,-0.00000659
 ,-0.00001494,-0.00002238,0.00000722,0.00000457,-0.00000526,0.00000646,
 -0.00000088,0.00000046,-0.00000298,-0.00143539,-0.00066293,-0.00194028
 ,0.00238590,0.00217864,0.00332892,-0.00008984,0.00000509,-0.00015155,-
 0.03634621,-0.00905386,-0.02273915,0.03781183,-0.00000985,0.00001445,0
 .00001613,0.00001714,0.00003597,-0.00003099,-0.00003866,-0.00003798,-0
 .00000444,0.00002680,0.00001932,0.00000316,0.00000118,-0.00000702,-0.0
 0000578,0.00003046,-0.00001102,0.00001087,0.00004092,0.00008410,-0.000
 01276,-0.00013926,0.00010516,-0.00003824,0.00000648,-0.00007935,0.0000
 2782,-0.00004871,-0.00000010,-0.00000439,0.00001593,0.00000598,-0.0000
 0314,0.00001854,0.00002488,-0.00000151,-0.00000566,-0.00000621,0.00000
 995,0.00000131,-0.00000068,0.00000615,-0.00000226,-0.00000660,-0.00000
 329,-0.00000037,0.00000067,0.00000037,-0.00000718,-0.00000126,-0.00000
 219,-0.00000403,-0.00000908,0.00000558,-0.00000305,-0.00000055,0.00000
 114,0.00000533,0.00000220,0.00000169,0.00000563,-0.00001077,0.00002262
 ,0.00026351,-0.00017285,0.00007816,0.00000361,0.00002530,0.00000696,-0
 .00000899,-0.00000979,-0.00000009,-0.00000005,-0.00000553,-0.00000023,
 -0.00000189,-0.00000009,-0.00000038,-0.00000084,-0.00000080,0.00000639
 ,-0.00174222,-0.00032489,-0.00204862,0.00253955,0.00046109,0.00285137,
 0.00007231,0.00028797,-0.00001406,-0.04722077,-0.34882431,0.23817320,0
 .04132118,0.36527031,0.00000600,0.00000200,-0.00000682,-0.00003169,0.0
 0000081,0.00002163,0.00002174,-0.00000200,-0.00003218,-0.00000335,-0.0
 0001009,-0.00000340,-0.00000483,0.00000335,0.00000136,-0.00001304,-0.0
 0003284,0.00000479,-0.00003278,0.00000773,0.00000119,0.00009596,-0.000
 03776,0.00001842,-0.00000520,0.00003597,-0.00001629,0.00001823,-0.0000
 0281,0.00000167,0.00000591,0.00000737,-0.00000101,0.00000612,-0.000004
 95,0.00003260,0.00000428,-0.00000077,0.00000282,-0.00000008,0.00000274
 ,-0.00000557,-0.00000166,-0.00000418,-0.00000011,0.00000192,-0.0000012
 6,-0.00000099,0.00000232,-0.00000002,-0.00000053,0.00000107,0.00000611
 ,-0.00000132,0.00000437,-0.00000198,-0.00000070,-0.00000399,-0.0000022
 0,0.00000452,-0.00000671,0.00001153,0.00000384,-0.00021648,0.00010800,
 -0.00007383,-0.00003096,0.00001032,0.00000601,-0.00000386,-0.00000095,
 0.00000763,0.00000291,0.00001221,-0.00000387,0.00000497,-0.00000144,-0
 .00000196,0.00000077,0.00000144,0.00000273,-0.00111841,-0.00117116,-0.
 00135774,0.00227429,0.00304171,0.00132374,-0.00017642,0.00035853,-0.00
 042357,0.00767673,0.26547339,-0.20773043,-0.00300760,-0.25579390,0.202
 32528,0.00000781,-0.00000557,-0.00001409,-0.00002178,0.00000221,0.0000
 1193,0.00004276,0.00000557,0.00001580,-0.00002735,-0.00000829,-0.00000
 929,-0.00000334,0.00000748,0.00000416,-0.00001577,-0.00002894,0.000001
 56,-0.00004674,-0.00002814,-0.00000247,0.00009106,-0.00005949,0.000030
 83,-0.00000048,0.00005696,-0.00001450,0.00001778,0.00001152,0.00000332
 ,-0.00000394,0.00001181,-0.00000434,-0.00001409,-0.00000596,-0.0000115
 7,0.00000295,-0.00000584,0.00000161,-0.00000183,-0.00000216,-0.0000026
 5,0.00000115,0.00000261,-0.00000043,0.00000160,-0.00000396,0.00000112,
 0.00000542,0.00000278,0.00000113,0.00000297,0.00000526,-0.00000097,0.0
 0000424,-0.00000185,-0.00000151,-0.00000281,0.00000032,-0.00000265,0.0
 0000701,0.00001558,-0.00004293,-0.00016340,0.00005046,-0.00008146,-0.0
 0000972,-0.00000592,-0.00001291,0.00000654,0.00001166,-0.00000026,-0.0
 0000426,-0.00000382,0.00000226,0.00000420,-0.00000241,0.00000180,0.000
 00334,0.00000170,-0.00000754,0.00072688,-0.00029200,0.00074553,-0.0015
 8839,0.00001738,-0.00058627,0.00004101,0.00011893,-0.00023288,-0.38179
 530,-0.23008843,-0.10899908,-0.00256400,0.00486391,-0.00547055,0.38529
 647,-0.00000321,0.00000789,0.00000574,-0.00000913,0.00002178,-0.000011
 86,-0.00000272,-0.00002973,-0.00000234,0.00000856,0.00000772,-0.000002
 95,-0.00000167,-0.00000081,-0.00000309,0.00004584,-0.00007666,0.000029
 84,-0.00010848,0.00000903,0.00000374,0.00021751,-0.00011294,0.00001643
 ,0.00012741,0.00006559,-0.00001278,-0.00006052,-0.00003598,-0.00000310
 ,0.00003808,0.00004367,-0.00001005,0.00001322,0.00001833,0.00000189,-0
 .00000286,-0.00001023,0.00000852,0.00000076,0.00000125,0.00000081,-0.0
 0000146,-0.00000526,-0.00000172,0.00000104,-0.00000113,0.00000069,-0.0
 0000213,-0.00000019,-0.00000108,-0.00000131,-0.00000324,0.00000297,0.0
 0000139,-0.00000137,-0.00000020,0.00000028,-0.00000026,0.00000196,0.00
 001829,0.00001498,0.00005511,-0.00041651,0.00040721,-0.00007395,-0.000
 03413,0.00000363,-0.00000703,-0.00000618,0.00000155,0.00000186,-0.0000
 0415,-0.00000659,-0.00000074,0.00000442,-0.00000131,0.00000020,0.00001
 549,-0.00000504,0.00001219,0.00080365,-0.00058837,0.00213397,-0.000779
 86,0.00086348,-0.00389362,-0.00002768,-0.00000886,0.00001210,-0.191423
 37,-0.14671348,-0.02858443,-0.03376723,-0.01682852,-0.01201493,0.22535
 665,0.16296387,0.00000374,-0.00000162,-0.00000430,-0.00001854,-0.00000
 186,0.00001792,0.00001032,0.00000233,-0.00002379,-0.00000028,-0.000005
 99,-0.00000189,-0.00000309,0.00000196,0.00000163,-0.00002008,0.0000125
 3,-0.00001142,0.00002344,-0.00000243,0.00000029,-0.00004613,0.00000080
 ,0.00001033,-0.00007790,-0.00000906,0.00001273,0.00005016,0.00001504,-
 0.00001145,-0.00001024,-0.00001477,0.00000859,0.00000572,-0.00000106,0
 .00002246,0.00000461,0.00000187,-0.00000088,-0.00000033,0.00000231,-0.
 00000450,-0.00000053,-0.00000195,0.00000034,0.00000065,-0.00000014,-0.
 00000071,0.00000164,-0.00000035,-0.00000052,0.00000048,0.00000375,-0.0
 0000122,0.00000263,-0.00000113,-0.00000007,-0.00000096,0.00000074,0.00
 000340,-0.00003160,0.00002023,-0.00000837,0.00002246,-0.00004859,-0.00
 004076,0.00000020,0.00000483,0.00000937,-0.00000358,-0.00000110,0.0000
 0606,0.00000178,0.00000764,-0.00000314,0.00000374,-0.00000130,-0.00000
 108,-0.00000652,0.00000387,0.00000347,-0.00033514,0.00122215,-0.003190
 18,-0.00080470,-0.00299878,0.00480875,-0.00053795,-0.00013885,-0.00026
 125,-0.13754798,-0.05714936,-0.06397555,0.02463664,0.01674244,0.005902
 10,0.11467732,0.04233583,0.05673363\\-0.00000062,-0.00000060,0.0000008
 1,0.00000039,-0.00000048,-0.00000149,-0.00000058,0.00000014,0.00000135
 ,0.00000114,0.00000019,0.00000021,-0.00000029,-0.00000090,-0.00000113,
 -0.00000043,0.00000203,-0.00000004,0.00000262,-0.00000046,0.00000092,0
 .00000378,-0.00000917,0.00000399,-0.00000171,0.00000666,-0.00000201,0.
 00000357,0.00000033,-0.00000026,-0.00000141,-0.00000226,0.00000057,0.0
 0000025,0.00000025,-0.00000023,-0.00000041,0.00000005,-0.00000005,-0.0
 0000030,0.00000011,-0.00000012,0.00000030,-0.00000005,-0.00000059,0.00
 000009,-0.00000042,-0.00000014,0.00000005,-0.00000037,0.00000003,0.000
 00002,-0.00000048,0.00000011,-0.00000002,-0.00000065,0.00000012,-0.000
 00010,-0.00000004,-0.00000033,-0.00000005,-0.00000004,0.00000054,-0.00
 000699,0.00001057,-0.00000823,0.00000054,0.00000030,0.00000002,-0.0000
 0013,-0.00000004,0.00000038,0.00000007,-0.00000019,0.00000021,-0.00000
 013,-0.00000039,0.00000026,-0.00000107,0.00000015,-0.00000003,0.000029
 78,-0.00032047,-0.00002405,-0.00006695,0.00051216,0.00004133,0.0000115
 3,-0.00000584,0.00000420,-0.00000100,-0.00019044,-0.00003997,0.0000115
 9,-0.00000631,0.00002092,0.00001647,0.00000665,0.00000268\\\@


 ERWIN WITH HIS PSI CAN DO
 CALCULATIONS QUITE A FEW.
 BUT ONE THING HAS NOT BEEN SEEN
 JUST WHAT DOES PSI REALLY MEAN.
 -- WALTER HUCKEL, TRANS. BY FELIX BLOCH
 Job cpu time:       0 days 14 hours 51 minutes 26.3 seconds.
 Elapsed time:       0 days  0 hours 31 minutes 52.9 seconds.
 File lengths (MBytes):  RWF=    908 Int=      0 D2E=      0 Chk=     28 Scr=      8
 Normal termination of Gaussian 16 at Tue Jan 24 17:46:45 2023.
