 Entering Gaussian System, Link 0=g16
 Input=NicPySs2h1.gjf
 Output=NicPySs2h1.log
 Initial command:
 /sw/contrib/gaussian/g16/A03/g16/l1.exe "/gscratch/scrubbed/gds001/Gau-31443.inp" -scrdir="/gscratch/scrubbed/gds001/"
 Entering Link 1 = /sw/contrib/gaussian/g16/A03/g16/l1.exe PID=     31444.
  
 Copyright (c) 1988,1990,1992,1993,1995,1998,2003,2009,2016,
            Gaussian, Inc.  All Rights Reserved.
  
 This is part of the Gaussian(R) 16 program.  It is based on
 the Gaussian(R) 09 system (copyright 2009, Gaussian, Inc.),
 the Gaussian(R) 03 system (copyright 2003, Gaussian, Inc.),
 the Gaussian(R) 98 system (copyright 1998, Gaussian, Inc.),
 the Gaussian(R) 94 system (copyright 1995, Gaussian, Inc.),
 the Gaussian 92(TM) system (copyright 1992, Gaussian, Inc.),
 the Gaussian 90(TM) system (copyright 1990, Gaussian, Inc.),
 the Gaussian 88(TM) system (copyright 1988, Gaussian, Inc.),
 the Gaussian 86(TM) system (copyright 1986, Carnegie Mellon
 University), and the Gaussian 82(TM) system (copyright 1983,
 Carnegie Mellon University). Gaussian is a federally registered
 trademark of Gaussian, Inc.
  
 This software contains proprietary and confidential information,
 including trade secrets, belonging to Gaussian, Inc.
  
 This software is provided under written license and may be
 used, copied, transmitted, or stored only in accord with that
 written license.
  
 The following legend is applicable only to US Government
 contracts under FAR:
  
                    RESTRICTED RIGHTS LEGEND
  
 Use, reproduction and disclosure by the US Government is
 subject to restrictions as set forth in subparagraphs (a)
 and (c) of the Commercial Computer Software - Restricted
 Rights clause in FAR 52.227-19.
  
 Gaussian, Inc.
 340 Quinnipiac St., Bldg. 40, Wallingford CT 06492
  
  
 ---------------------------------------------------------------
 Warning -- This program may not be used in any manner that
 competes with the business of Gaussian, Inc. or will provide
 assistance to any competitor of Gaussian, Inc.  The licensee
 of this program is prohibited from giving any competitor of
 Gaussian, Inc. access to this program.  By using this program,
 the user acknowledges that Gaussian, Inc. is engaged in the
 business of creating and licensing software in the field of
 computational chemistry and represents and warrants to the
 licensee that it is not a competitor of Gaussian, Inc. and that
 it will not use this program in any manner prohibited above.
 ---------------------------------------------------------------
  

 Cite this work as:
 Gaussian 16, Revision A.03,
 M. J. Frisch, G. W. Trucks, H. B. Schlegel, G. E. Scuseria, 
 M. A. Robb, J. R. Cheeseman, G. Scalmani, V. Barone, 
 G. A. Petersson, H. Nakatsuji, X. Li, M. Caricato, A. V. Marenich, 
 J. Bloino, B. G. Janesko, R. Gomperts, B. Mennucci, H. P. Hratchian, 
 J. V. Ortiz, A. F. Izmaylov, J. L. Sonnenberg, D. Williams-Young, 
 F. Ding, F. Lipparini, F. Egidi, J. Goings, B. Peng, A. Petrone, 
 T. Henderson, D. Ranasinghe, V. G. Zakrzewski, J. Gao, N. Rega, 
 G. Zheng, W. Liang, M. Hada, M. Ehara, K. Toyota, R. Fukuda, 
 J. Hasegawa, M. Ishida, T. Nakajima, Y. Honda, O. Kitao, H. Nakai, 
 T. Vreven, K. Throssell, J. A. Montgomery, Jr., J. E. Peralta, 
 F. Ogliaro, M. J. Bearpark, J. J. Heyd, E. N. Brothers, K. N. Kudin, 
 V. N. Staroverov, T. A. Keith, R. Kobayashi, J. Normand, 
 K. Raghavachari, A. P. Rendell, J. C. Burant, S. S. Iyengar, 
 J. Tomasi, M. Cossi, J. M. Millam, M. Klene, C. Adamo, R. Cammi, 
 J. W. Ochterski, R. L. Martin, K. Morokuma, O. Farkas, 
 J. B. Foresman, and D. J. Fox, Gaussian, Inc., Wallingford CT, 2016.
 
 ******************************************
 Gaussian 16:  ES64L-G16RevA.03 25-Dec-2016
                24-Jan-2023 
 ******************************************
 %nprocshared=28
 Will use up to   28 processors via shared memory.
 %mem=41GB
 -----------------------------
 # wB97XD/aug-cc-pVDZ opt freq
 -----------------------------
 1/18=20,19=15,26=3,38=1/1,3;
 2/9=110,12=2,17=6,18=5,40=1/2;
 3/5=16,7=10,11=2,25=1,30=1,71=1,74=-58/1,2,3;
 4//1;
 5/5=2,38=5/2;
 6/7=2,8=2,9=2,10=2,28=1/1;
 7//1,2,3,16;
 1/18=20,19=15,26=3/3(2);
 2/9=110/2;
 99//99;
 2/9=110/2;
 3/5=16,7=10,11=2,25=1,30=1,71=1,74=-58/1,2,3;
 4/5=5,16=3,69=1/1;
 5/5=2,38=5/2;
 7//1,2,3,16;
 1/18=20,19=15,26=3/3(-5);
 2/9=110/2;
 6/7=2,8=2,9=2,10=2,19=2,28=1/1;
 99/9=1/99;
 ----
 blah
 ----
 Symbolic Z-matrix:
 Charge =  1 Multiplicity = 1
 C                    -1.80065  -1.01585  -1.30989 
 C                    -1.18959  -0.6093    0.05823 
 N                    -2.17415   0.28229   0.64867 
 C                    -3.47426  -0.26925   0.27294 
 C                    -3.29455  -0.63425  -1.19874 
 C                     0.15108   0.07247  -0.08262 
 C                     1.33537  -0.61207   0.12941 
 N                     2.52168   0.00056  -0.04218 
 C                     2.62956   1.28605  -0.41164 
 C                     1.48234   2.02918  -0.62874 
 C                     0.24214   1.4183   -0.46293 
 C                    -2.01069   0.48048   2.07724 
 H                    -1.0501   -1.5187    0.68014 
 H                    -1.31287  -0.4821   -2.13429 
 H                    -1.65293  -2.08726  -1.48569 
 H                    -3.51518   0.23222  -1.83224 
 H                    -3.95619  -1.45081  -1.50518 
 H                    -3.71041  -1.17026   0.87453 
 H                    -4.26447   0.47004   0.44807 
 H                    -0.6835    1.97492  -0.61033 
 H                     3.63726   1.68003  -0.51753 
 H                     3.3887   -0.54326   0.12462 
 H                     1.37321  -1.654     0.44077 
 H                    -1.03625   0.93979   2.29169 
 H                    -2.08175  -0.46971   2.64306 
 H                    -2.78816   1.1603    2.44392 
 H                     1.56582   3.07287  -0.92262 
 O                     4.82501  -1.44205   0.39788 
 H                     5.30947  -1.52241   1.22463 
 H                     5.31998  -1.94983  -0.25164 
 O                     6.0284   -2.91551  -1.31764 
 H                     6.14128  -3.83909  -1.59179 
 H                     6.68861  -2.36269  -1.7642 
 
 Add virtual bond connecting atoms O31        and H30        Dist= 3.03D+00.
 Add virtual bond connecting atoms O28        and H22        Dist= 3.24D+00.

 GradGradGradGradGradGradGradGradGradGradGradGradGradGradGradGradGradGrad
 Berny optimization.
 Initialization pass.
                           ----------------------------
                           !    Initial Parameters    !
                           ! (Angstroms and Degrees)  !
 --------------------------                            --------------------------
 ! Name  Definition              Value          Derivative Info.                !
 --------------------------------------------------------------------------------
 ! R1    R(1,2)                  1.5526         estimate D2E/DX2                !
 ! R2    R(1,5)                  1.5459         estimate D2E/DX2                !
 ! R3    R(1,14)                 1.0966         estimate D2E/DX2                !
 ! R4    R(1,15)                 1.0957         estimate D2E/DX2                !
 ! R5    R(2,3)                  1.4536         estimate D2E/DX2                !
 ! R6    R(2,6)                  1.5106         estimate D2E/DX2                !
 ! R7    R(2,13)                 1.1105         estimate D2E/DX2                !
 ! R8    R(3,4)                  1.4614         estimate D2E/DX2                !
 ! R9    R(3,12)                 1.4515         estimate D2E/DX2                !
 ! R10   R(4,5)                  1.5269         estimate D2E/DX2                !
 ! R11   R(4,18)                 1.1088         estimate D2E/DX2                !
 ! R12   R(4,19)                 1.0962         estimate D2E/DX2                !
 ! R13   R(5,16)                 1.0958         estimate D2E/DX2                !
 ! R14   R(5,17)                 1.0947         estimate D2E/DX2                !
 ! R15   R(6,7)                  1.3842         estimate D2E/DX2                !
 ! R16   R(6,11)                 1.4015         estimate D2E/DX2                !
 ! R17   R(7,8)                  1.3461         estimate D2E/DX2                !
 ! R18   R(7,23)                 1.0881         estimate D2E/DX2                !
 ! R19   R(8,9)                  1.3419         estimate D2E/DX2                !
 ! R20   R(8,22)                 1.037          estimate D2E/DX2                !
 ! R21   R(9,10)                 1.384          estimate D2E/DX2                !
 ! R22   R(9,21)                 1.0871         estimate D2E/DX2                !
 ! R23   R(10,11)                1.3924         estimate D2E/DX2                !
 ! R24   R(10,27)                1.0875         estimate D2E/DX2                !
 ! R25   R(11,20)                1.0901         estimate D2E/DX2                !
 ! R26   R(12,24)                1.0984         estimate D2E/DX2                !
 ! R27   R(12,25)                1.1082         estimate D2E/DX2                !
 ! R28   R(12,26)                1.0959         estimate D2E/DX2                !
 ! R29   R(22,28)                1.7162         estimate D2E/DX2                !
 ! R30   R(28,29)                0.9616         estimate D2E/DX2                !
 ! R31   R(28,30)                0.9616         estimate D2E/DX2                !
 ! R32   R(30,31)                1.6034         estimate D2E/DX2                !
 ! R33   R(31,32)                0.97           estimate D2E/DX2                !
 ! R34   R(31,33)                0.97           estimate D2E/DX2                !
 ! A1    A(2,1,5)              104.6165         estimate D2E/DX2                !
 ! A2    A(2,1,14)             111.0982         estimate D2E/DX2                !
 ! A3    A(2,1,15)             110.1428         estimate D2E/DX2                !
 ! A4    A(5,1,14)             111.332          estimate D2E/DX2                !
 ! A5    A(5,1,15)             112.5311         estimate D2E/DX2                !
 ! A6    A(14,1,15)            107.1786         estimate D2E/DX2                !
 ! A7    A(1,2,3)              104.594          estimate D2E/DX2                !
 ! A8    A(1,2,6)              112.6633         estimate D2E/DX2                !
 ! A9    A(1,2,13)             109.1776         estimate D2E/DX2                !
 ! A10   A(3,2,6)              111.2335         estimate D2E/DX2                !
 ! A11   A(3,2,13)             111.0938         estimate D2E/DX2                !
 ! A12   A(6,2,13)             108.0784         estimate D2E/DX2                !
 ! A13   A(2,3,4)              105.4655         estimate D2E/DX2                !
 ! A14   A(2,3,12)             114.0325         estimate D2E/DX2                !
 ! A15   A(4,3,12)             113.8763         estimate D2E/DX2                !
 ! A16   A(3,4,5)              103.4927         estimate D2E/DX2                !
 ! A17   A(3,4,18)             110.8953         estimate D2E/DX2                !
 ! A18   A(3,4,19)             110.2247         estimate D2E/DX2                !
 ! A19   A(5,4,18)             110.7169         estimate D2E/DX2                !
 ! A20   A(5,4,19)             113.5806         estimate D2E/DX2                !
 ! A21   A(18,4,19)            107.9275         estimate D2E/DX2                !
 ! A22   A(1,5,4)              104.0076         estimate D2E/DX2                !
 ! A23   A(1,5,16)             110.3767         estimate D2E/DX2                !
 ! A24   A(1,5,17)             112.3222         estimate D2E/DX2                !
 ! A25   A(4,5,16)             110.1518         estimate D2E/DX2                !
 ! A26   A(4,5,17)             112.1465         estimate D2E/DX2                !
 ! A27   A(16,5,17)            107.835          estimate D2E/DX2                !
 ! A28   A(2,6,7)              121.4546         estimate D2E/DX2                !
 ! A29   A(2,6,11)             121.0881         estimate D2E/DX2                !
 ! A30   A(7,6,11)             117.4426         estimate D2E/DX2                !
 ! A31   A(6,7,8)              120.6232         estimate D2E/DX2                !
 ! A32   A(6,7,23)             123.1694         estimate D2E/DX2                !
 ! A33   A(8,7,23)             116.2072         estimate D2E/DX2                !
 ! A34   A(7,8,9)              122.8148         estimate D2E/DX2                !
 ! A35   A(7,8,22)             118.5335         estimate D2E/DX2                !
 ! A36   A(9,8,22)             118.6505         estimate D2E/DX2                !
 ! A37   A(8,9,10)             119.4018         estimate D2E/DX2                !
 ! A38   A(8,9,21)             116.6482         estimate D2E/DX2                !
 ! A39   A(10,9,21)            123.9495         estimate D2E/DX2                !
 ! A40   A(9,10,11)            118.9503         estimate D2E/DX2                !
 ! A41   A(9,10,27)            119.609          estimate D2E/DX2                !
 ! A42   A(11,10,27)           121.4406         estimate D2E/DX2                !
 ! A43   A(6,11,10)            120.7633         estimate D2E/DX2                !
 ! A44   A(6,11,20)            118.1535         estimate D2E/DX2                !
 ! A45   A(10,11,20)           121.0772         estimate D2E/DX2                !
 ! A46   A(3,12,24)            110.4358         estimate D2E/DX2                !
 ! A47   A(3,12,25)            112.2236         estimate D2E/DX2                !
 ! A48   A(3,12,26)            109.5184         estimate D2E/DX2                !
 ! A49   A(24,12,25)           108.4057         estimate D2E/DX2                !
 ! A50   A(24,12,26)           107.7366         estimate D2E/DX2                !
 ! A51   A(25,12,26)           108.3945         estimate D2E/DX2                !
 ! A52   A(22,28,29)           127.034          estimate D2E/DX2                !
 ! A53   A(22,28,30)           126.8529         estimate D2E/DX2                !
 ! A54   A(29,28,30)           106.0974         estimate D2E/DX2                !
 ! A55   A(30,31,32)           144.3695         estimate D2E/DX2                !
 ! A56   A(30,31,33)           105.2805         estimate D2E/DX2                !
 ! A57   A(32,31,33)           109.471          estimate D2E/DX2                !
 ! A58   L(8,22,28,23,-1)      180.08           estimate D2E/DX2                !
 ! A59   L(28,30,31,15,-1)     175.646          estimate D2E/DX2                !
 ! A60   L(8,22,28,23,-2)      179.9129         estimate D2E/DX2                !
 ! A61   L(28,30,31,15,-2)     184.389          estimate D2E/DX2                !
 ! D1    D(5,1,2,3)            -16.3025         estimate D2E/DX2                !
 ! D2    D(5,1,2,6)           -137.2517         estimate D2E/DX2                !
 ! D3    D(5,1,2,13)           102.6643         estimate D2E/DX2                !
 ! D4    D(14,1,2,3)           103.9341         estimate D2E/DX2                !
 ! D5    D(14,1,2,6)           -17.0152         estimate D2E/DX2                !
 ! D6    D(14,1,2,13)         -137.0992         estimate D2E/DX2                !
 ! D7    D(15,1,2,3)          -137.4642         estimate D2E/DX2                !
 ! D8    D(15,1,2,6)           101.5865         estimate D2E/DX2                !
 ! D9    D(15,1,2,13)          -18.4975         estimate D2E/DX2                !
 ! D10   D(2,1,5,4)             -9.2305         estimate D2E/DX2                !
 ! D11   D(2,1,5,16)           108.8967         estimate D2E/DX2                !
 ! D12   D(2,1,5,17)          -130.726          estimate D2E/DX2                !
 ! D13   D(14,1,5,4)          -129.3108         estimate D2E/DX2                !
 ! D14   D(14,1,5,16)          -11.1837         estimate D2E/DX2                !
 ! D15   D(14,1,5,17)          109.1937         estimate D2E/DX2                !
 ! D16   D(15,1,5,4)           110.3387         estimate D2E/DX2                !
 ! D17   D(15,1,5,16)         -131.5341         estimate D2E/DX2                !
 ! D18   D(15,1,5,17)          -11.1568         estimate D2E/DX2                !
 ! D19   D(1,2,3,4)             37.22           estimate D2E/DX2                !
 ! D20   D(1,2,3,12)           162.8961         estimate D2E/DX2                !
 ! D21   D(6,2,3,4)            159.1124         estimate D2E/DX2                !
 ! D22   D(6,2,3,12)           -75.2114         estimate D2E/DX2                !
 ! D23   D(13,2,3,4)           -80.4427         estimate D2E/DX2                !
 ! D24   D(13,2,3,12)           45.2335         estimate D2E/DX2                !
 ! D25   D(1,2,6,7)           -100.3293         estimate D2E/DX2                !
 ! D26   D(1,2,6,11)            78.2405         estimate D2E/DX2                !
 ! D27   D(3,2,6,7)            142.5942         estimate D2E/DX2                !
 ! D28   D(3,2,6,11)           -38.8361         estimate D2E/DX2                !
 ! D29   D(13,2,6,7)            20.3862         estimate D2E/DX2                !
 ! D30   D(13,2,6,11)         -161.044          estimate D2E/DX2                !
 ! D31   D(2,3,4,5)            -43.4773         estimate D2E/DX2                !
 ! D32   D(2,3,4,18)            75.2737         estimate D2E/DX2                !
 ! D33   D(2,3,4,19)          -165.2686         estimate D2E/DX2                !
 ! D34   D(12,3,4,5)          -169.25           estimate D2E/DX2                !
 ! D35   D(12,3,4,18)          -50.4989         estimate D2E/DX2                !
 ! D36   D(12,3,4,19)           68.9588         estimate D2E/DX2                !
 ! D37   D(2,3,12,24)           61.5815         estimate D2E/DX2                !
 ! D38   D(2,3,12,25)          -59.4979         estimate D2E/DX2                !
 ! D39   D(2,3,12,26)         -179.9285         estimate D2E/DX2                !
 ! D40   D(4,3,12,24)         -177.3093         estimate D2E/DX2                !
 ! D41   D(4,3,12,25)           61.6113         estimate D2E/DX2                !
 ! D42   D(4,3,12,26)          -58.8193         estimate D2E/DX2                !
 ! D43   D(3,4,5,1)             31.4877         estimate D2E/DX2                !
 ! D44   D(3,4,5,16)           -86.7943         estimate D2E/DX2                !
 ! D45   D(3,4,5,17)           153.1001         estimate D2E/DX2                !
 ! D46   D(18,4,5,1)           -87.3866         estimate D2E/DX2                !
 ! D47   D(18,4,5,16)          154.3314         estimate D2E/DX2                !
 ! D48   D(18,4,5,17)           34.2258         estimate D2E/DX2                !
 ! D49   D(19,4,5,1)           151.0019         estimate D2E/DX2                !
 ! D50   D(19,4,5,16)           32.7199         estimate D2E/DX2                !
 ! D51   D(19,4,5,17)          -87.3857         estimate D2E/DX2                !
 ! D52   D(2,6,7,8)            177.8702         estimate D2E/DX2                !
 ! D53   D(2,6,7,23)            -2.3051         estimate D2E/DX2                !
 ! D54   D(11,6,7,8)            -0.7497         estimate D2E/DX2                !
 ! D55   D(11,6,7,23)          179.075          estimate D2E/DX2                !
 ! D56   D(2,6,11,10)         -178.105          estimate D2E/DX2                !
 ! D57   D(2,6,11,20)            2.7762         estimate D2E/DX2                !
 ! D58   D(7,6,11,10)            0.5202         estimate D2E/DX2                !
 ! D59   D(7,6,11,20)         -178.5985         estimate D2E/DX2                !
 ! D60   D(6,7,8,9)              0.4795         estimate D2E/DX2                !
 ! D61   D(6,7,8,22)          -179.9366         estimate D2E/DX2                !
 ! D62   D(23,7,8,9)          -179.3569         estimate D2E/DX2                !
 ! D63   D(23,7,8,22)            0.227          estimate D2E/DX2                !
 ! D64   D(7,8,9,10)             0.0575         estimate D2E/DX2                !
 ! D65   D(7,8,9,21)           179.8023         estimate D2E/DX2                !
 ! D66   D(22,8,9,10)         -179.526          estimate D2E/DX2                !
 ! D67   D(22,8,9,21)            0.2188         estimate D2E/DX2                !
 ! D68   D(7,8,28,29)          -90.6555         estimate D2E/DX2                !
 ! D69   D(7,8,28,30)           91.0307         estimate D2E/DX2                !
 ! D70   D(9,8,28,29)           88.999          estimate D2E/DX2                !
 ! D71   D(9,8,28,30)          -89.3148         estimate D2E/DX2                !
 ! D72   D(8,9,10,11)           -0.2844         estimate D2E/DX2                !
 ! D73   D(8,9,10,27)          179.6448         estimate D2E/DX2                !
 ! D74   D(21,9,10,11)         179.9906         estimate D2E/DX2                !
 ! D75   D(21,9,10,27)          -0.0802         estimate D2E/DX2                !
 ! D76   D(9,10,11,6)           -0.0138         estimate D2E/DX2                !
 ! D77   D(9,10,11,20)         179.079          estimate D2E/DX2                !
 ! D78   D(27,10,11,6)        -179.9417         estimate D2E/DX2                !
 ! D79   D(27,10,11,20)         -0.8488         estimate D2E/DX2                !
 ! D80   D(22,28,31,32)        -99.9903         estimate D2E/DX2                !
 ! D81   D(22,28,31,33)         91.588          estimate D2E/DX2                !
 ! D82   D(29,28,31,32)         77.5951         estimate D2E/DX2                !
 ! D83   D(29,28,31,33)        -90.8267         estimate D2E/DX2                !
 --------------------------------------------------------------------------------
 Trust Radius=3.00D-01 FncErr=1.00D-07 GrdErr=1.00D-06 EigMax=2.50D+02 EigMin=1.00D-04
 Number of steps in this run=    188 maximum allowed number of steps=    198.
 GradGradGradGradGradGradGradGradGradGradGradGradGradGradGradGradGradGrad

                          Input orientation:                          
 ---------------------------------------------------------------------
 Center     Atomic      Atomic             Coordinates (Angstroms)
 Number     Number       Type             X           Y           Z
 ---------------------------------------------------------------------
      1          6           0       -1.800645   -1.015847   -1.309890
      2          6           0       -1.189589   -0.609301    0.058231
      3          7           0       -2.174152    0.282289    0.648666
      4          6           0       -3.474256   -0.269251    0.272941
      5          6           0       -3.294551   -0.634248   -1.198736
      6          6           0        0.151077    0.072472   -0.082615
      7          6           0        1.335374   -0.612074    0.129413
      8          7           0        2.521682    0.000557   -0.042175
      9          6           0        2.629562    1.286047   -0.411636
     10          6           0        1.482341    2.029183   -0.628744
     11          6           0        0.242144    1.418303   -0.462929
     12          6           0       -2.010693    0.480484    2.077243
     13          1           0       -1.050098   -1.518699    0.680140
     14          1           0       -1.312873   -0.482104   -2.134290
     15          1           0       -1.652926   -2.087256   -1.485687
     16          1           0       -3.515178    0.232215   -1.832241
     17          1           0       -3.956191   -1.450807   -1.505178
     18          1           0       -3.710414   -1.170261    0.874528
     19          1           0       -4.264466    0.470044    0.448065
     20          1           0       -0.683502    1.974916   -0.610331
     21          1           0        3.637261    1.680030   -0.517527
     22          1           0        3.388701   -0.543258    0.124615
     23          1           0        1.373208   -1.653995    0.440768
     24          1           0       -1.036246    0.939794    2.291692
     25          1           0       -2.081749   -0.469705    2.643059
     26          1           0       -2.788157    1.160299    2.443919
     27          1           0        1.565822    3.072872   -0.922622
     28          8           0        4.825008   -1.442047    0.397875
     29          1           0        5.309473   -1.522407    1.224631
     30          1           0        5.319976   -1.949825   -0.251641
     31          8           0        6.028403   -2.915514   -1.317635
     32          1           0        6.141282   -3.839094   -1.591787
     33          1           0        6.688605   -2.362689   -1.764197
 ---------------------------------------------------------------------
                    Distance matrix (angstroms):
                    1          2          3          4          5
     1  C    0.000000
     2  C    1.552554   0.000000
     3  N    2.379203   1.453585   0.000000
     4  C    2.421515   2.319793   1.461382   0.000000
     5  C    1.545875   2.451827   2.346961   1.526876   0.000000
     6  C    2.549482   1.510641   2.446525   3.658720   3.690194
     7  C    3.474081   2.525968   3.658727   4.823968   4.816708
     8  N    4.617650   3.762385   4.754734   6.010272   5.963990
     9  C    5.072702   4.289409   5.020701   6.335944   6.277115
    10  C    4.529257   3.817426   4.248924   5.537480   5.498859
    11  C    3.288680   2.536266   2.892172   4.147405   4.154827
    12  C    3.708881   2.436853   1.451493   2.441234   3.690929
    13  H    2.185498   1.110510   2.123216   2.757440   3.057777
    14  H    1.096558   2.199665   3.011801   3.242167   2.196692
    15  H    1.095738   2.186942   3.231390   3.116915   2.210997
    16  H    2.184063   3.112940   2.820595   2.164471   1.095793
    17  H    2.207647   3.287319   3.289123   2.188617   1.094734
    18  H    2.905640   2.708427   2.126268   1.108827   2.181439
    19  H    3.371749   3.282046   2.108294   1.096201   2.207295
    20  H    3.268341   2.716851   2.583040   3.688463   3.737852
    21  H    6.120981   5.373175   6.089845   7.416078   7.339615
    22  H    5.404670   4.579248   5.648140   6.870026   6.813618
    23  H    3.680405   2.793859   4.046749   5.044164   5.051320
    24  H    4.168960   2.722418   2.103967   3.388368   4.445294
    25  H    4.000387   2.738023   2.133457   2.756214   4.032041
    26  H    4.449930   3.373190   2.090655   2.688399   4.092159
    27  H    5.310433   4.702421   4.923790   6.164539   6.119003
    28  O    6.855464   6.081464   7.212799   8.382651   8.314382
    29  H    7.565327   6.665738   7.719670   8.923565   8.982804
    30  H    7.259163   6.653380   7.871140   8.968725   8.765718
    31  O    8.056227   7.701366   9.020765   9.991655   9.598739
    32  H    8.433528   8.178985   9.547349  10.424949   9.972987
    33  H    8.607424   8.274150   9.558571  10.574316  10.147446
                    6          7          8          9         10
     6  C    0.000000
     7  C    1.384239   0.000000
     8  N    2.372040   1.346137   0.000000
     9  C    2.779192   2.360195   1.341873   0.000000
    10  C    2.428835   2.751843   2.353639   1.384017   0.000000
    11  C    1.401497   2.380851   2.717229   2.391629   1.392393
    12  C    3.082971   4.022920   5.026399   5.326858   4.682106
    13  H    2.134582   2.610698   3.948100   4.753785   4.551252
    14  H    2.580712   3.486324   4.394738   4.651525   4.048018
    15  H    3.144434   3.703329   4.885698   5.556299   5.244933
    16  H    4.065481   5.299883   6.300927   6.394256   5.445429
    17  H    4.605835   5.601430   6.797770   7.215147   6.515834
    18  H    4.167928   5.130960   6.407041   6.919752   6.281797
    19  H    4.465054   5.712331   6.820012   6.995182   6.051134
    20  H    2.143432   3.363867   3.807112   3.389751   2.166601
    21  H    3.863531   3.312243   2.071498   1.087149   2.185854
    22  H    3.302162   2.054485   1.036955   2.051881   3.289257
    23  H    2.179042   1.088105   2.071176   3.308907   3.836869
    24  H    2.792726   3.564874   4.357517   4.567934   4.007368
    25  H    3.564936   4.244457   5.350066   5.883050   5.445353
    26  H    4.025648   5.049926   5.976626   6.125495   5.332295
    27  H    3.421917   3.839103   3.335862   2.141353   1.087483
    28  O    4.936625   3.597009   2.753191   3.594132   4.927150
    29  H    5.555320   4.221572   3.419941   4.212684   5.540373
    30  H    5.552997   4.220407   3.417355   4.211270   5.540952
    31  O    6.707928   5.424418   4.735754   5.479605   6.752132
    32  H    7.311669   6.039283   5.499611   6.323923   7.554459
    33  H    7.176141   5.942011   5.090534   5.623035   6.905286
                   11         12         13         14         15
    11  C    0.000000
    12  C    3.522393   0.000000
    13  H    3.406241   2.621330   0.000000
    14  H    2.970366   4.376133   3.010747   0.000000
    15  H    4.114155   4.406331   2.318936   1.764323   0.000000
    16  H    4.171245   4.196329   3.931206   2.334873   2.994667
    17  H    5.190770   4.510941   3.636702   2.884666   2.389660
    18  H    4.910414   2.657167   2.690070   3.908292   3.262630
    19  H    4.694533   2.780975   3.786967   4.035721   4.135133
    20  H    1.090122   3.349301   3.742333   2.958970   4.266998
    21  H    3.405628   6.330176   5.799794   5.638490   6.566267
    22  H    3.754164   5.832174   4.578540   5.216435   5.513167
    23  H    3.396320   4.322596   2.438855   3.901190   3.613368
    24  H    3.074279   1.098408   2.939639   4.656998   4.879746
    25  H    4.314188   1.108177   2.453109   4.838842   4.454986
    26  H    4.207025   1.095924   3.648122   5.082711   5.222755
    27  H    2.168188   5.339581   5.522174   4.732111   6.107725
    28  O    5.470396   7.296795   5.882382   6.708721   6.777000
    29  H    6.097004   7.636973   6.382839   7.498003   7.492655
    30  H    6.096992   8.066524   6.452281   7.049345   7.082593
    31  O    7.279649   9.364031   7.486480   7.777066   7.727682
    32  H    7.982128   9.928506   7.890617   8.193175   7.989360
    33  H    7.585912   9.925628   8.159328   8.227832   8.350723
                   16         17         18         19         20
    16  H    0.000000
    17  H    1.770318   0.000000
    18  H    3.054776   2.408758   0.000000
    19  H    2.412010   2.756784   1.783100   0.000000
    20  H    3.542381   4.821496   4.610764   4.025934   0.000000
    21  H    7.414987   8.272733   8.003143   8.051939   4.331808
    22  H    7.217630   7.578081   7.166096   7.726731   4.843984
    23  H    5.711451   5.677190   5.124974   6.024530   4.301611
    24  H    4.863393   5.353249   3.689425   3.747136   3.101233
    25  H    4.751391   4.656604   2.504203   3.235024   4.303000
    26  H    4.435701   4.876222   2.957204   2.576698   3.797580
    27  H    5.891799   7.162100   7.005183   6.530372   2.522398
    28  O    8.794048   8.985051   8.553040   9.288549   6.560168
    29  H    9.502507   9.659685   9.033545   9.809853   7.177333
    30  H    9.236858   9.373774   9.133670   9.909939   7.181504
    31  O   10.062453  10.093199  10.133906  10.978290   8.334642
    32  H   10.482394  10.376434  10.500538  11.445927   9.019071
    33  H   10.528787  10.686922  10.794645  11.527716   8.631001
                   21         22         23         24         25
    21  H    0.000000
    22  H    2.327475   0.000000
    23  H    4.142462   2.322908   0.000000
    24  H    5.502847   5.145466   3.994888   0.000000
    25  H    6.878789   6.022773   4.264898   1.789755   0.000000
    26  H    7.094102   6.814312   5.408311   1.772283   1.787619
    27  H    2.528828   4.182821   4.923333   4.653235   6.210371
    28  O    3.463534   1.716237   3.458567   6.604090   7.327318
    29  H    4.010862   2.420358   4.015711   6.889790   7.599361
    30  H    4.009747   2.418641   4.017950   7.431016   8.084280
    31  O    5.241828   3.830889   5.133640   8.820426   9.351131
    32  H    6.155070   4.624421   5.624986   9.457065   9.844031
    33  H    5.216173   4.215128   5.798066   9.328985   9.996320
                   26         27         28         29         30
    26  H    0.000000
    27  H    5.826548   0.000000
    28  O    8.301734   5.722805   0.000000
    29  H    8.617145   6.304142   0.961608   0.000000
    30  H    9.092895   6.306455   0.961615   1.536937   0.000000
    31  O   10.416011   7.478732   2.561687   2.986758   1.603362
    32  H   11.000715   8.316122   3.381888   3.740475   2.457615
    33  H   10.951197   7.516414   2.999189   3.397230   2.081208
                   31         32         33
    31  O    0.000000
    32  H    0.970000   0.000000
    33  H    0.970000   1.584001   0.000000
 Stoichiometry    C10H19N2O2(1+)
 Framework group  C1[X(C10H19N2O2)]
 Deg. of freedom    93
 Full point group                 C1      NOp   1
 Largest Abelian subgroup         C1      NOp   1
 Largest concise Abelian subgroup C1      NOp   1
                         Standard orientation:                         
 ---------------------------------------------------------------------
 Center     Atomic      Atomic             Coordinates (Angstroms)
 Number     Number       Type             X           Y           Z
 ---------------------------------------------------------------------
      1          6           0       -2.066208   -1.523477   -0.967584
      2          6           0       -1.663783   -0.623486    0.231788
      3          7           0       -2.846354    0.177531    0.501616
      4          6           0       -3.981418   -0.714290    0.273755
      5          6           0       -3.609201   -1.442338   -1.015722
      6          6           0       -0.468867    0.249766   -0.070939
      7          6           0        0.800459   -0.085434    0.367890
      8          7           0        1.860102    0.682504    0.052430
      9          6           0        1.754958    1.800596   -0.682034
     10          6           0        0.511278    2.196767   -1.142265
     11          6           0       -0.600908    1.417703   -0.834274
     12          6           0       -2.847667    0.807863    1.809099
     13          1           0       -1.409541   -1.266202    1.100989
     14          1           0       -1.618404   -1.161169   -1.900667
     15          1           0       -1.704209   -2.545683   -0.810441
     16          1           0       -3.933699   -0.859830   -1.885290
     17          1           0       -4.075699   -2.430543   -1.081100
     18          1           0       -4.094453   -1.432397    1.111038
     19          1           0       -4.909136   -0.135239    0.198284
     20          1           0       -1.598672    1.705145   -1.166252
     21          1           0        2.675472    2.346167   -0.874122
     22          1           0        2.796422    0.400536    0.397502
     23          1           0        1.007191   -0.962444    0.977882
     24          1           0       -1.999770    1.499909    1.902077
     25          1           0       -2.786818    0.067475    2.631400
     26          1           0       -3.768287    1.389062    1.934471
     27          1           0        0.421367    3.105453   -1.732881
     28          8           0        4.347401   -0.065488    0.965617
     29          1           0        4.764829    0.197187    1.791114
     30          1           0        4.983717   -0.625418    0.511433
     31          8           0        5.951373   -1.689538   -0.197128
     32          1           0        6.259906   -2.608983   -0.178990
     33          1           0        6.531503   -1.165079   -0.770969
 ---------------------------------------------------------------------
 Rotational constants (GHZ):           1.1295537           0.2500136           0.2332614
 Standard basis: Aug-CC-pVDZ (5D, 7F)
 There are   521 symmetry adapted cartesian basis functions of A   symmetry.
 There are   493 symmetry adapted basis functions of A   symmetry.
   493 basis functions,   811 primitive gaussians,   521 cartesian basis functions
    54 alpha electrons       54 beta electrons
       nuclear repulsion energy       906.2052758870 Hartrees.
 NAtoms=   33 NActive=   33 NUniq=   33 SFac= 1.00D+00 NAtFMM=   60 NAOKFM=F Big=F
 Integral buffers will be    131072 words long.
 Raffenetti 2 integral format.
 Two-electron integral symmetry is turned on.
 Nuclear repulsion after empirical dispersion term =      906.1836779813 Hartrees.
 One-electron integrals computed using PRISM.
 NBasis=   493 RedAO= T EigKep=  2.53D-06  NBF=   493
 NBsUse=   493 1.00D-06 EigRej= -1.00D+00 NBFU=   493
 ExpMin= 2.97D-02 ExpMax= 1.17D+04 ExpMxC= 4.01D+02 IAcc=3 IRadAn=         5 AccDes= 0.00D+00
 Harris functional with IExCor= 4639 and IRadAn=       5 diagonalized for initial guess.
 HarFok:  IExCor= 4639 AccDes= 0.00D+00 IRadAn=         5 IDoV= 1 UseB2=F ITyADJ=14
 ICtDFT=  3500011 ScaDFX=  1.000000  1.000000  1.000000  1.000000
 FoFCou: FMM=F IPFlag=           0 FMFlag=      100000 FMFlg1=           0
         NFxFlg=           0 DoJE=T BraDBF=F KetDBF=T FulRan=T
         wScrn=  0.000000 ICntrl=       500 IOpCl=  0 I1Cent=   200000004 NGrid=           0
         NMat0=    1 NMatS0=      1 NMatT0=    0 NMatD0=    1 NMtDS0=    0 NMtDT0=    0
 Petite list used in FoFCou.
 Requested convergence on RMS density matrix=1.00D-08 within 128 cycles.
 Requested convergence on MAX density matrix=1.00D-06.
 Requested convergence on             energy=1.00D-06.
 No special actions if energy rises.
 SCF Done:  E(RwB97XD) =  -652.146545126     A.U. after   14 cycles
            NFock= 14  Conv=0.80D-08     -V/T= 2.0063

 **********************************************************************

            Population analysis using the SCF density.

 **********************************************************************

 Orbital symmetries:
       Occupied  (A) (A) (A) (A) (A) (A) (A) (A) (A) (A) (A) (A)
                 (A) (A) (A) (A) (A) (A) (A) (A) (A) (A) (A) (A)
                 (A) (A) (A) (A) (A) (A) (A) (A) (A) (A) (A) (A)
                 (A) (A) (A) (A) (A) (A) (A) (A) (A) (A) (A) (A)
                 (A) (A) (A) (A) (A) (A)
       Virtual   (A) (A) (A) (A) (A) (A) (A) (A) (A) (A) (A) (A)
                 (A) (A) (A) (A) (A) (A) (A) (A) (A) (A) (A) (A)
                 (A) (A) (A) (A) (A) (A) (A) (A) (A) (A) (A) (A)
                 (A) (A) (A) (A) (A) (A) (A) (A) (A) (A) (A) (A)
                 (A) (A) (A) (A) (A) (A) (A) (A) (A) (A) (A) (A)
                 (A) (A) (A) (A) (A) (A) (A) (A) (A) (A) (A) (A)
                 (A) (A) (A) (A) (A) (A) (A) (A) (A) (A) (A) (A)
                 (A) (A) (A) (A) (A) (A) (A) (A) (A) (A) (A) (A)
                 (A) (A) (A) (A) (A) (A) (A) (A) (A) (A) (A) (A)
                 (A) (A) (A) (A) (A) (A) (A) (A) (A) (A) (A) (A)
                 (A) (A) (A) (A) (A) (A) (A) (A) (A) (A) (A) (A)
                 (A) (A) (A) (A) (A) (A) (A) (A) (A) (A) (A) (A)
                 (A) (A) (A) (A) (A) (A) (A) (A) (A) (A) (A) (A)
                 (A) (A) (A) (A) (A) (A) (A) (A) (A) (A) (A) (A)
                 (A) (A) (A) (A) (A) (A) (A) (A) (A) (A) (A) (A)
                 (A) (A) (A) (A) (A) (A) (A) (A) (A) (A) (A) (A)
                 (A) (A) (A) (A) (A) (A) (A) (A) (A) (A) (A) (A)
                 (A) (A) (A) (A) (A) (A) (A) (A) (A) (A) (A) (A)
                 (A) (A) (A) (A) (A) (A) (A) (A) (A) (A) (A) (A)
                 (A) (A) (A) (A) (A) (A) (A) (A) (A) (A) (A) (A)
                 (A) (A) (A) (A) (A) (A) (A) (A) (A) (A) (A) (A)
                 (A) (A) (A) (A) (A) (A) (A) (A) (A) (A) (A) (A)
                 (A) (A) (A) (A) (A) (A) (A) (A) (A) (A) (A) (A)
                 (A) (A) (A) (A) (A) (A) (A) (A) (A) (A) (A) (A)
                 (A) (A) (A) (A) (A) (A) (A) (A) (A) (A) (A) (A)
                 (A) (A) (A) (A) (A) (A) (A) (A) (A) (A) (A) (A)
                 (A) (A) (A) (A) (A) (A) (A) (A) (A) (A) (A) (A)
                 (A) (A) (A) (A) (A) (A) (A) (A) (A) (A) (A) (A)
                 (A) (A) (A) (A) (A) (A) (A) (A) (A) (A) (A) (A)
                 (A) (A) (A) (A) (A) (A) (A) (A) (A) (A) (A) (A)
                 (A) (A) (A) (A) (A) (A) (A) (A) (A) (A) (A) (A)
                 (A) (A) (A) (A) (A) (A) (A) (A) (A) (A) (A) (A)
                 (A) (A) (A) (A) (A) (A) (A) (A) (A) (A) (A) (A)
                 (A) (A) (A) (A) (A) (A) (A) (A) (A) (A) (A) (A)
                 (A) (A) (A) (A) (A) (A) (A) (A) (A) (A) (A) (A)
                 (A) (A) (A) (A) (A) (A) (A) (A) (A) (A) (A) (A)
                 (A) (A) (A) (A) (A) (A) (A)
 The electronic state is 1-A.
 Alpha  occ. eigenvalues --  -19.41779 -19.39518 -14.68395 -14.55192 -10.51498
 Alpha  occ. eigenvalues --  -10.51103 -10.47478 -10.47068 -10.47010 -10.45258
 Alpha  occ. eigenvalues --  -10.41439 -10.41374 -10.40585 -10.39106  -1.26517
 Alpha  occ. eigenvalues --   -1.26111  -1.23771  -1.15719  -1.08104  -1.04918
 Alpha  occ. eigenvalues --   -0.99060  -0.95162  -0.90828  -0.88974  -0.87533
 Alpha  occ. eigenvalues --   -0.83019  -0.78465  -0.77818  -0.77378  -0.75320
 Alpha  occ. eigenvalues --   -0.75034  -0.73604  -0.70699  -0.69085  -0.68574
 Alpha  occ. eigenvalues --   -0.68003  -0.64724  -0.64529  -0.63329  -0.62316
 Alpha  occ. eigenvalues --   -0.60979  -0.60015  -0.58706  -0.57053  -0.56241
 Alpha  occ. eigenvalues --   -0.55335  -0.54736  -0.54296  -0.53445  -0.53004
 Alpha  occ. eigenvalues --   -0.52348  -0.50765  -0.49137  -0.41247
 Alpha virt. eigenvalues --   -0.14388  -0.10736  -0.07307  -0.05422  -0.04930
 Alpha virt. eigenvalues --   -0.04444  -0.03553  -0.03047  -0.02899  -0.02789
 Alpha virt. eigenvalues --   -0.01780  -0.01355  -0.01027  -0.00835  -0.00251
 Alpha virt. eigenvalues --    0.00015   0.00575   0.01104   0.01814   0.01990
 Alpha virt. eigenvalues --    0.02299   0.02535   0.03005   0.03302   0.03376
 Alpha virt. eigenvalues --    0.03676   0.03972   0.04206   0.04996   0.05241
 Alpha virt. eigenvalues --    0.05583   0.05736   0.05987   0.06126   0.06771
 Alpha virt. eigenvalues --    0.07075   0.07559   0.07705   0.08051   0.08160
 Alpha virt. eigenvalues --    0.08435   0.08817   0.09099   0.09350   0.09712
 Alpha virt. eigenvalues --    0.10434   0.10501   0.10752   0.10909   0.11432
 Alpha virt. eigenvalues --    0.11798   0.12171   0.12438   0.12994   0.13186
 Alpha virt. eigenvalues --    0.13274   0.13986   0.14094   0.14249   0.14635
 Alpha virt. eigenvalues --    0.15065   0.15517   0.15796   0.16193   0.16400
 Alpha virt. eigenvalues --    0.16718   0.16747   0.16950   0.17507   0.17674
 Alpha virt. eigenvalues --    0.18174   0.18659   0.18854   0.19162   0.19432
 Alpha virt. eigenvalues --    0.19808   0.20264   0.20760   0.20882   0.21408
 Alpha virt. eigenvalues --    0.21917   0.22354   0.22708   0.23077   0.23401
 Alpha virt. eigenvalues --    0.24128   0.24257   0.24442   0.25062   0.25443
 Alpha virt. eigenvalues --    0.26051   0.26180   0.26463   0.26828   0.27190
 Alpha virt. eigenvalues --    0.27969   0.28208   0.28304   0.29112   0.29526
 Alpha virt. eigenvalues --    0.29932   0.30770   0.31023   0.31188   0.31481
 Alpha virt. eigenvalues --    0.31864   0.32714   0.32927   0.33360   0.33850
 Alpha virt. eigenvalues --    0.34545   0.34953   0.35601   0.35664   0.36517
 Alpha virt. eigenvalues --    0.36706   0.36914   0.37390   0.37917   0.37997
 Alpha virt. eigenvalues --    0.38588   0.39009   0.39041   0.39773   0.40269
 Alpha virt. eigenvalues --    0.41214   0.41601   0.42248   0.42797   0.42803
 Alpha virt. eigenvalues --    0.43277   0.43494   0.43842   0.44349   0.44610
 Alpha virt. eigenvalues --    0.45280   0.45657   0.45816   0.46334   0.46927
 Alpha virt. eigenvalues --    0.47288   0.47536   0.48196   0.49388   0.49637
 Alpha virt. eigenvalues --    0.49741   0.49882   0.50215   0.50614   0.51080
 Alpha virt. eigenvalues --    0.51296   0.51665   0.52115   0.52232   0.52532
 Alpha virt. eigenvalues --    0.53736   0.53794   0.54040   0.54238   0.54774
 Alpha virt. eigenvalues --    0.55211   0.55615   0.56084   0.57028   0.57384
 Alpha virt. eigenvalues --    0.57531   0.57819   0.58796   0.59264   0.59865
 Alpha virt. eigenvalues --    0.59992   0.60790   0.61622   0.62379   0.62503
 Alpha virt. eigenvalues --    0.63111   0.63694   0.63970   0.64314   0.64442
 Alpha virt. eigenvalues --    0.64877   0.65511   0.66562   0.67373   0.67542
 Alpha virt. eigenvalues --    0.67814   0.68580   0.68813   0.69100   0.70232
 Alpha virt. eigenvalues --    0.70508   0.70568   0.71511   0.71609   0.72003
 Alpha virt. eigenvalues --    0.72740   0.73222   0.73743   0.74193   0.74425
 Alpha virt. eigenvalues --    0.75411   0.76018   0.76227   0.76725   0.77081
 Alpha virt. eigenvalues --    0.77804   0.78831   0.79163   0.79364   0.79906
 Alpha virt. eigenvalues --    0.80464   0.81297   0.82690   0.83223   0.83753
 Alpha virt. eigenvalues --    0.84719   0.85198   0.85702   0.86340   0.87079
 Alpha virt. eigenvalues --    0.87886   0.88912   0.90207   0.90600   0.90905
 Alpha virt. eigenvalues --    0.91751   0.92173   0.93172   0.94793   0.95895
 Alpha virt. eigenvalues --    0.96896   0.97401   0.97935   0.98811   0.98927
 Alpha virt. eigenvalues --    1.00310   1.01293   1.02153   1.03379   1.03702
 Alpha virt. eigenvalues --    1.05010   1.06078   1.06426   1.06938   1.07646
 Alpha virt. eigenvalues --    1.08612   1.09378   1.11184   1.12491   1.12747
 Alpha virt. eigenvalues --    1.15450   1.15773   1.16375   1.17110   1.17353
 Alpha virt. eigenvalues --    1.18810   1.19781   1.21481   1.22417   1.23925
 Alpha virt. eigenvalues --    1.24973   1.26174   1.26620   1.29068   1.29387
 Alpha virt. eigenvalues --    1.30798   1.31842   1.32738   1.32918   1.34517
 Alpha virt. eigenvalues --    1.35071   1.35786   1.36291   1.37443   1.38902
 Alpha virt. eigenvalues --    1.39391   1.41765   1.42306   1.43434   1.44056
 Alpha virt. eigenvalues --    1.44289   1.46429   1.46839   1.47232   1.48305
 Alpha virt. eigenvalues --    1.50158   1.50772   1.51467   1.52450   1.53848
 Alpha virt. eigenvalues --    1.54502   1.56561   1.56870   1.58386   1.59463
 Alpha virt. eigenvalues --    1.60233   1.61540   1.62418   1.62833   1.64037
 Alpha virt. eigenvalues --    1.64800   1.65613   1.66503   1.67145   1.67975
 Alpha virt. eigenvalues --    1.68743   1.71136   1.71718   1.72684   1.73129
 Alpha virt. eigenvalues --    1.73335   1.74082   1.75631   1.76881   1.78224
 Alpha virt. eigenvalues --    1.78814   1.79087   1.79575   1.81182   1.81650
 Alpha virt. eigenvalues --    1.82070   1.82770   1.83845   1.84612   1.85725
 Alpha virt. eigenvalues --    1.85931   1.87955   1.88640   1.89279   1.89991
 Alpha virt. eigenvalues --    1.91319   1.92599   1.93509   1.93579   1.95381
 Alpha virt. eigenvalues --    1.96764   1.97151   1.98282   1.99269   1.99966
 Alpha virt. eigenvalues --    2.00750   2.02143   2.03150   2.05289   2.05487
 Alpha virt. eigenvalues --    2.06444   2.07628   2.08165   2.08966   2.10944
 Alpha virt. eigenvalues --    2.11268   2.11700   2.13667   2.13831   2.15319
 Alpha virt. eigenvalues --    2.15862   2.16488   2.17365   2.19349   2.20494
 Alpha virt. eigenvalues --    2.21396   2.22503   2.22858   2.24399   2.25586
 Alpha virt. eigenvalues --    2.26543   2.27093   2.29141   2.30526   2.30818
 Alpha virt. eigenvalues --    2.32565   2.33117   2.34142   2.35539   2.37010
 Alpha virt. eigenvalues --    2.39026   2.40883   2.41407   2.42991   2.44216
 Alpha virt. eigenvalues --    2.44943   2.47031   2.48570   2.49243   2.51162
 Alpha virt. eigenvalues --    2.51817   2.53887   2.54444   2.55284   2.55764
 Alpha virt. eigenvalues --    2.57124   2.58342   2.59350   2.60516   2.61355
 Alpha virt. eigenvalues --    2.62929   2.63607   2.65233   2.65896   2.67923
 Alpha virt. eigenvalues --    2.69397   2.70977   2.73365   2.73885   2.74729
 Alpha virt. eigenvalues --    2.77265   2.77986   2.81489   2.81967   2.84151
 Alpha virt. eigenvalues --    2.86239   2.87819   2.90041   2.92272   2.95585
 Alpha virt. eigenvalues --    2.97343   3.00086   3.03303   3.11967   3.14207
 Alpha virt. eigenvalues --    3.15403   3.21779   3.26116   3.26397   3.31074
 Alpha virt. eigenvalues --    3.35433   3.36238   3.38736   3.43966   3.48191
 Alpha virt. eigenvalues --    3.50512   3.57153   3.65529   3.69195   3.79350
 Alpha virt. eigenvalues --    3.84959   4.12096   4.24523   4.85846
          Condensed to atoms (all electrons):
               1          2          3          4          5          6
     1  C    6.889566  -0.791047  -0.405559   0.275300  -0.577681   0.286249
     2  C   -0.791047  18.807076  -2.108770  -0.265276  -0.883224  -4.927435
     3  N   -0.405559  -2.108770   8.871243   0.123411   0.129113   0.690424
     4  C    0.275300  -0.265276   0.123411   5.641680   0.154380  -0.180685
     5  C   -0.577681  -0.883224   0.129113   0.154380   6.025312   0.549111
     6  C    0.286249  -4.927435   0.690424  -0.180685   0.549111  22.233223
     7  C   -0.565581  -1.519281   0.014938  -0.190899   0.112536  -6.611747
     8  N    0.026101   0.420349  -0.059367   0.016335  -0.014103   0.358736
     9  C   -0.133653  -0.813830   0.061257  -0.054789  -0.006481  -0.587274
    10  C    0.294244   0.182956  -0.166285   0.086562   0.054404   1.454855
    11  C   -0.186469  -0.920893   0.390855  -0.132802  -0.357884  -8.356362
    12  C   -0.063205  -0.327144   0.424545  -0.213927   0.001262   0.156328
    13  H    0.370451  -2.085423  -0.149196  -0.114056   0.076100   0.445529
    14  H   -0.316973   0.045921   0.045730   0.074169   0.271370  -0.507426
    15  H   -0.670978   0.211748   0.135708  -0.144486   0.235164   0.176603
    16  H    0.099245  -0.078434   0.091335  -0.026527  -0.192306   0.078656
    17  H    0.323281   0.014962  -0.028136   0.107524  -0.320216  -0.050886
    18  H   -0.123434  -0.263853   0.441415  -0.264812   0.059390   0.171992
    19  H    0.118933   0.521929  -0.677079  -0.103530  -0.037694  -0.210457
    20  H    0.073327   0.110876  -0.231900   0.041121   0.005501   0.157707
    21  H    0.003794   0.010719   0.003886  -0.001096  -0.000445   0.196224
    22  H   -0.019061  -0.009902   0.000748  -0.002987   0.002987  -0.644287
    23  H    0.152492   0.037309   0.058397   0.013800  -0.000080   0.152926
    24  H    0.119958   0.155695  -0.166142  -0.071240  -0.066811   0.053085
    25  H   -0.026586  -0.253569   0.221437   0.011361   0.060232   0.000346
    26  H   -0.053342  -0.055995  -0.271734   0.030454   0.045827   0.114082
    27  H   -0.010785   0.018502  -0.003737   0.001644   0.005479  -0.378955
    28  O   -0.001356  -0.001906   0.000293   0.000101  -0.000155  -0.098572
    29  H    0.000335   0.002137  -0.000000   0.000087  -0.000048   0.008776
    30  H   -0.000387   0.001662   0.000038   0.000012  -0.000032  -0.005525
    31  O    0.000123   0.000125  -0.000002   0.000000   0.000009   0.001412
    32  H    0.000021   0.000104  -0.000005   0.000002   0.000001   0.000519
    33  H    0.000033   0.000038  -0.000002   0.000001   0.000003   0.000151
               7          8          9         10         11         12
     1  C   -0.565581   0.026101  -0.133653   0.294244  -0.186469  -0.063205
     2  C   -1.519281   0.420349  -0.813830   0.182956  -0.920893  -0.327144
     3  N    0.014938  -0.059367   0.061257  -0.166285   0.390855   0.424545
     4  C   -0.190899   0.016335  -0.054789   0.086562  -0.132802  -0.213927
     5  C    0.112536  -0.014103  -0.006481   0.054404  -0.357884   0.001262
     6  C   -6.611747   0.358736  -0.587274   1.454855  -8.356362   0.156328
     7  C   17.729334  -0.911462  -0.539878  -1.488433  -0.825130  -0.026945
     8  N   -0.911462   7.360031   0.051352   0.393322  -0.487040  -0.015009
     9  C   -0.539878   0.051352   9.973186  -2.921523   1.130107   0.008453
    10  C   -1.488433   0.393322  -2.921523  13.499388  -5.485700  -0.011034
    11  C   -0.825130  -0.487040   1.130107  -5.485700  21.444691  -0.028582
    12  C   -0.026945  -0.015009   0.008453  -0.011034  -0.028582   4.469774
    13  H    0.360175  -0.007786   0.040292  -0.076772  -0.027239   0.059630
    14  H    0.110921   0.021444  -0.020462  -0.008657   0.079168   0.020723
    15  H   -0.033936  -0.013070   0.002380   0.031983  -0.051975   0.010865
    16  H    0.010522  -0.002295   0.002009   0.009866   0.013224  -0.014945
    17  H    0.004293  -0.000366   0.000978  -0.005270   0.001043   0.014830
    18  H    0.013547  -0.000246  -0.000609   0.003505   0.020279  -0.015788
    19  H   -0.013023   0.001872  -0.002976   0.003791  -0.009620  -0.008913
    20  H    0.146519  -0.025823  -0.229879   1.066951  -2.322824  -0.031135
    21  H    0.034424   0.017741  -0.839684   0.295915   0.055115   0.002742
    22  H    0.512600  -0.015828  -0.367792  -0.164549   0.072144  -0.003431
    23  H   -1.001208   0.089221  -0.003727   0.032808  -0.000584   0.006057
    24  H   -0.190420   0.022732  -0.009305   0.056369  -0.042610   0.252002
    25  H    0.066819  -0.008528   0.002672  -0.000127   0.022988   0.139875
    26  H    0.024206  -0.002903   0.003566  -0.003782  -0.040789   0.363138
    27  H    0.064756  -0.032692   0.511272  -1.293191   0.837260  -0.007978
    28  O    0.108962  -0.167519   0.012315  -0.040518   0.043454  -0.000404
    29  H   -0.010345   0.007294  -0.008197   0.007902  -0.002762  -0.000026
    30  H   -0.000164   0.004015  -0.004898  -0.000581   0.007744  -0.000041
    31  O   -0.000188  -0.003547   0.006102   0.001174  -0.000131  -0.000000
    32  H   -0.000950   0.000731   0.000050   0.000237  -0.000224  -0.000001
    33  H    0.000590  -0.000607  -0.001107   0.000349  -0.000529   0.000003
              13         14         15         16         17         18
     1  C    0.370451  -0.316973  -0.670978   0.099245   0.323281  -0.123434
     2  C   -2.085423   0.045921   0.211748  -0.078434   0.014962  -0.263853
     3  N   -0.149196   0.045730   0.135708   0.091335  -0.028136   0.441415
     4  C   -0.114056   0.074169  -0.144486  -0.026527   0.107524  -0.264812
     5  C    0.076100   0.271370   0.235164  -0.192306  -0.320216   0.059390
     6  C    0.445529  -0.507426   0.176603   0.078656  -0.050886   0.171992
     7  C    0.360175   0.110921  -0.033936   0.010522   0.004293   0.013547
     8  N   -0.007786   0.021444  -0.013070  -0.002295  -0.000366  -0.000246
     9  C    0.040292  -0.020462   0.002380   0.002009   0.000978  -0.000609
    10  C   -0.076772  -0.008657   0.031983   0.009866  -0.005270   0.003505
    11  C   -0.027239   0.079168  -0.051975   0.013224   0.001043   0.020279
    12  C    0.059630   0.020723   0.010865  -0.014945   0.014830  -0.015788
    13  H    3.074049   0.130328  -0.286532  -0.047691   0.040803  -0.074612
    14  H    0.130328   2.201697  -0.477904  -0.336767   0.126480  -0.036479
    15  H   -0.286532  -0.477904   2.317147   0.187050  -0.294807   0.059344
    16  H   -0.047691  -0.336767   0.187050   2.057600  -0.440177   0.166065
    17  H    0.040803   0.126480  -0.294807  -0.440177   1.904998  -0.192657
    18  H   -0.074612  -0.036479   0.059344   0.166065  -0.192657   1.842007
    19  H    0.047903   0.015725  -0.023082  -0.250348   0.065894  -0.426869
    20  H    0.009223  -0.014340  -0.002352   0.005161   0.005952   0.001191
    21  H   -0.000252  -0.001915   0.001331   0.000300  -0.000008   0.000137
    22  H    0.004483   0.001443   0.000767   0.000038   0.000244  -0.000430
    23  H   -0.073156   0.013892   0.003710   0.001258   0.000104   0.004300
    24  H    0.028594   0.006958  -0.002841  -0.006910  -0.000853  -0.003291
    25  H    0.042283   0.001196   0.000721  -0.000918   0.007384   0.003836
    26  H    0.003105  -0.001598   0.000752   0.006907  -0.002468  -0.001308
    27  H    0.003799  -0.001980  -0.001085   0.000492  -0.000438  -0.000058
    28  O    0.001030   0.000195  -0.000060  -0.000018  -0.000000  -0.000030
    29  H   -0.000152   0.000035   0.000009  -0.000006   0.000000   0.000005
    30  H    0.000242   0.000097  -0.000038  -0.000007   0.000000  -0.000010
    31  O   -0.000053   0.000023  -0.000031  -0.000000   0.000001   0.000001
    32  H    0.000005   0.000004   0.000000  -0.000000   0.000001  -0.000000
    33  H   -0.000034  -0.000003  -0.000000   0.000000  -0.000000   0.000001
              19         20         21         22         23         24
     1  C    0.118933   0.073327   0.003794  -0.019061   0.152492   0.119958
     2  C    0.521929   0.110876   0.010719  -0.009902   0.037309   0.155695
     3  N   -0.677079  -0.231900   0.003886   0.000748   0.058397  -0.166142
     4  C   -0.103530   0.041121  -0.001096  -0.002987   0.013800  -0.071240
     5  C   -0.037694   0.005501  -0.000445   0.002987  -0.000080  -0.066811
     6  C   -0.210457   0.157707   0.196224  -0.644287   0.152926   0.053085
     7  C   -0.013023   0.146519   0.034424   0.512600  -1.001208  -0.190420
     8  N    0.001872  -0.025823   0.017741  -0.015828   0.089221   0.022732
     9  C   -0.002976  -0.229879  -0.839684  -0.367792  -0.003727  -0.009305
    10  C    0.003791   1.066951   0.295915  -0.164549   0.032808   0.056369
    11  C   -0.009620  -2.322824   0.055115   0.072144  -0.000584  -0.042610
    12  C   -0.008913  -0.031135   0.002742  -0.003431   0.006057   0.252002
    13  H    0.047903   0.009223  -0.000252   0.004483  -0.073156   0.028594
    14  H    0.015725  -0.014340  -0.001915   0.001443   0.013892   0.006958
    15  H   -0.023082  -0.002352   0.001331   0.000767   0.003710  -0.002841
    16  H   -0.250348   0.005161   0.000300   0.000038   0.001258  -0.006910
    17  H    0.065894   0.005952  -0.000008   0.000244   0.000104  -0.000853
    18  H   -0.426869   0.001191   0.000137  -0.000430   0.004300  -0.003291
    19  H    2.472120   0.014233  -0.000168  -0.000069  -0.001338   0.005687
    20  H    0.014233   3.309904  -0.015015   0.018482  -0.021376   0.023701
    21  H   -0.000168  -0.015015   2.104850  -0.133161   0.007187  -0.000796
    22  H   -0.000069   0.018482  -0.133161   1.765001  -0.086229  -0.002932
    23  H   -0.001338  -0.021376   0.007187  -0.086229   2.412231   0.007543
    24  H    0.005687   0.023701  -0.000796  -0.002932   0.007543   2.116996
    25  H    0.007296   0.003538   0.000166   0.001893   0.000824  -0.407657
    26  H    0.015501  -0.004027   0.000315  -0.000253   0.001658  -0.541864
    27  H   -0.000609  -0.133485  -0.121906   0.012732  -0.001265   0.000759
    28  O    0.000008   0.000999  -0.003204   0.060544  -0.000264   0.000083
    29  H    0.000005  -0.000051   0.005171  -0.010827   0.001531   0.000067
    30  H    0.000003  -0.000118   0.000059  -0.005533   0.002241  -0.000007
    31  O    0.000000  -0.000000   0.001767  -0.015495   0.002188   0.000008
    32  H    0.000000  -0.000004   0.000067   0.001309  -0.000391   0.000001
    33  H   -0.000000  -0.000007  -0.000136   0.001694   0.000277  -0.000001
              25         26         27         28         29         30
     1  C   -0.026586  -0.053342  -0.010785  -0.001356   0.000335  -0.000387
     2  C   -0.253569  -0.055995   0.018502  -0.001906   0.002137   0.001662
     3  N    0.221437  -0.271734  -0.003737   0.000293  -0.000000   0.000038
     4  C    0.011361   0.030454   0.001644   0.000101   0.000087   0.000012
     5  C    0.060232   0.045827   0.005479  -0.000155  -0.000048  -0.000032
     6  C    0.000346   0.114082  -0.378955  -0.098572   0.008776  -0.005525
     7  C    0.066819   0.024206   0.064756   0.108962  -0.010345  -0.000164
     8  N   -0.008528  -0.002903  -0.032692  -0.167519   0.007294   0.004015
     9  C    0.002672   0.003566   0.511272   0.012315  -0.008197  -0.004898
    10  C   -0.000127  -0.003782  -1.293191  -0.040518   0.007902  -0.000581
    11  C    0.022988  -0.040789   0.837260   0.043454  -0.002762   0.007744
    12  C    0.139875   0.363138  -0.007978  -0.000404  -0.000026  -0.000041
    13  H    0.042283   0.003105   0.003799   0.001030  -0.000152   0.000242
    14  H    0.001196  -0.001598  -0.001980   0.000195   0.000035   0.000097
    15  H    0.000721   0.000752  -0.001085  -0.000060   0.000009  -0.000038
    16  H   -0.000918   0.006907   0.000492  -0.000018  -0.000006  -0.000007
    17  H    0.007384  -0.002468  -0.000438  -0.000000   0.000000   0.000000
    18  H    0.003836  -0.001308  -0.000058  -0.000030   0.000005  -0.000010
    19  H    0.007296   0.015501  -0.000609   0.000008   0.000005   0.000003
    20  H    0.003538  -0.004027  -0.133485   0.000999  -0.000051  -0.000118
    21  H    0.000166   0.000315  -0.121906  -0.003204   0.005171   0.000059
    22  H    0.001893  -0.000253   0.012732   0.060544  -0.010827  -0.005533
    23  H    0.000824   0.001658  -0.001265  -0.000264   0.001531   0.002241
    24  H   -0.407657  -0.541864   0.000759   0.000083   0.000067  -0.000007
    25  H    1.552763  -0.279019  -0.001494   0.000022  -0.000016   0.000008
    26  H   -0.279019   1.881306   0.000373  -0.000042  -0.000004  -0.000013
    27  H   -0.001494   0.000373   2.116754  -0.000883  -0.000234   0.000141
    28  O    0.000022  -0.000042  -0.000883   7.836883   0.362246   0.348841
    29  H   -0.000016  -0.000004  -0.000234   0.362246   0.606016  -0.113754
    30  H    0.000008  -0.000013   0.000141   0.348841  -0.113754   0.564926
    31  O    0.000000   0.000000  -0.000030  -0.054272   0.006556  -0.043852
    32  H   -0.000000  -0.000000   0.000005   0.002703   0.000083  -0.000967
    33  H    0.000000   0.000000   0.000002   0.000714  -0.002534  -0.002698
              31         32         33
     1  C    0.000123   0.000021   0.000033
     2  C    0.000125   0.000104   0.000038
     3  N   -0.000002  -0.000005  -0.000002
     4  C    0.000000   0.000002   0.000001
     5  C    0.000009   0.000001   0.000003
     6  C    0.001412   0.000519   0.000151
     7  C   -0.000188  -0.000950   0.000590
     8  N   -0.003547   0.000731  -0.000607
     9  C    0.006102   0.000050  -0.001107
    10  C    0.001174   0.000237   0.000349
    11  C   -0.000131  -0.000224  -0.000529
    12  C   -0.000000  -0.000001   0.000003
    13  H   -0.000053   0.000005  -0.000034
    14  H    0.000023   0.000004  -0.000003
    15  H   -0.000031   0.000000  -0.000000
    16  H   -0.000000  -0.000000   0.000000
    17  H    0.000001   0.000001  -0.000000
    18  H    0.000001  -0.000000   0.000001
    19  H    0.000000   0.000000  -0.000000
    20  H   -0.000000  -0.000004  -0.000007
    21  H    0.001767   0.000067  -0.000136
    22  H   -0.015495   0.001309   0.001694
    23  H    0.002188  -0.000391   0.000277
    24  H    0.000008   0.000001  -0.000001
    25  H    0.000000  -0.000000   0.000000
    26  H    0.000000  -0.000000   0.000000
    27  H   -0.000030   0.000005   0.000002
    28  O   -0.054272   0.002703   0.000714
    29  H    0.006556   0.000083  -0.002534
    30  H   -0.043852  -0.000967  -0.002698
    31  O    7.791408   0.343666   0.352575
    32  H    0.343666   0.529947  -0.069216
    33  H    0.352575  -0.069216   0.567339
 Mulliken charges:
               1
     1  C    0.912643
     2  C    0.763872
     3  N   -0.436861
     4  C    1.189170
     5  C    0.668976
     6  C    1.272676
     7  C    0.614448
     8  N   -0.023085
     9  C    0.740076
    10  C    0.189840
    11  C    1.162074
    12  C    0.838280
    13  H   -0.795070
    14  H   -0.443016
    15  H   -0.372105
    16  H   -0.332378
    17  H   -0.282489
    18  H   -0.382530
    19  H   -0.525125
    20  H   -0.962051
    21  H   -0.624124
    22  H    0.025657
    23  H   -0.812338
    24  H   -0.336559
    25  H   -0.169747
    26  H   -0.232048
    27  H   -0.583167
    28  O   -0.410189
    29  H    0.140702
    30  H    0.248599
    31  O   -0.389536
    32  H    0.192303
    33  H    0.153102
 Sum of Mulliken charges =   1.00000
 Mulliken charges with hydrogens summed into heavy atoms:
               1
     1  C    0.097522
     2  C   -0.031199
     3  N   -0.436861
     4  C    0.281515
     5  C    0.054109
     6  C    1.272676
     7  C   -0.197889
     8  N    0.002572
     9  C    0.115951
    10  C   -0.393327
    11  C    0.200024
    12  C    0.099926
    28  O   -0.020887
    31  O   -0.044131
 Electronic spatial extent (au):  <R**2>=           4850.7047
 Charge=              1.0000 electrons
 Dipole moment (field-independent basis, Debye):
    X=              8.4553    Y=              0.4068    Z=             -0.6915  Tot=              8.4933
 Quadrupole moment (field-independent basis, Debye-Ang):
   XX=             -4.0954   YY=            -64.9812   ZZ=            -76.2681
   XY=             -6.9333   XZ=             -2.3664   YZ=             -3.3229
 Traceless Quadrupole moment (field-independent basis, Debye-Ang):
   XX=             44.3528   YY=            -16.5330   ZZ=            -27.8199
   XY=             -6.9333   XZ=             -2.3664   YZ=             -3.3229
 Octapole moment (field-independent basis, Debye-Ang**2):
  XXX=            425.9592  YYY=            -10.0430  ZZZ=             10.3187  XYY=             64.5190
  XXY=            -97.8092  XXZ=            -14.1593  XZZ=             30.4414  YZZ=              6.8212
  YYZ=            -15.5856  XYZ=              1.2984
 Hexadecapole moment (field-independent basis, Debye-Ang**3):
 XXXX=          -1606.2389 YYYY=           -718.2359 ZZZZ=           -499.3769 XXXY=           -684.6225
 XXXZ=           -175.9657 YYYX=           -156.8777 YYYZ=            -40.1782 ZZZX=             46.5309
 ZZZY=             -4.1664 XXYY=           -563.7013 XXZZ=           -719.9801 YYZZ=           -208.0005
 XXYZ=             73.6986 YYXZ=            -16.9675 ZZXY=            -13.2745
 N-N= 9.061836779813D+02 E-N=-3.316747805677D+03  KE= 6.480544145505D+02
 Calling FoFJK, ICntrl=      2127 FMM=F ISym2X=0 I1Cent= 0 IOpClX= 0 NMat=1 NMatS=1 NMatT=0.
 ***** Axes restored to original set *****
 -------------------------------------------------------------------
 Center     Atomic                   Forces (Hartrees/Bohr)
 Number     Number              X              Y              Z
 -------------------------------------------------------------------
      1        6          -0.000103742    0.000072403    0.000137979
      2        6           0.000386316    0.000088136   -0.000259789
      3        7          -0.000435993   -0.000086511    0.000076600
      4        6           0.000188531    0.000128095    0.000098958
      5        6           0.000060548   -0.000082926   -0.000055419
      6        6          -0.000032373    0.000424952   -0.000052767
      7        6           0.000990344    0.000611076   -0.000167306
      8        7          -0.002632554    0.001538824   -0.000618801
      9        6          -0.000360647   -0.001168600    0.000313045
     10        6          -0.000251351    0.000127392   -0.000049182
     11        6          -0.000029774   -0.000180727    0.000037512
     12        6           0.000032773    0.000052621   -0.000093867
     13        1          -0.000056228    0.000024773   -0.000000467
     14        1           0.000012576    0.000007240    0.000071121
     15        1          -0.000012691   -0.000029934    0.000004639
     16        1          -0.000008646    0.000034736   -0.000005273
     17        1          -0.000062066   -0.000016011   -0.000006322
     18        1          -0.000032515   -0.000073211    0.000012456
     19        1          -0.000054817    0.000012036    0.000021339
     20        1           0.000063367    0.000033489   -0.000007601
     21        1           0.000019242   -0.000239016    0.000129466
     22        1           0.005687281   -0.003574563    0.001368972
     23        1           0.000326447    0.000036393   -0.000023731
     24        1          -0.000029529   -0.000063370   -0.000050994
     25        1           0.000017015   -0.000027286    0.000006628
     26        1          -0.000048380    0.000013910    0.000007526
     27        1          -0.000082669    0.000024461    0.000017832
     28        8          -0.011192393    0.016598986    0.016535112
     29        1          -0.002156602    0.000912109   -0.001220365
     30        1           0.001948113   -0.012791809   -0.007081052
     31        8           0.009349317   -0.000901654   -0.010370702
     32        1           0.001522843    0.011071946    0.001608475
     33        1          -0.003021745   -0.012577959   -0.000384024
 -------------------------------------------------------------------
 Cartesian Forces:  Max     0.016598986 RMS     0.003827381

 GradGradGradGradGradGradGradGradGradGradGradGradGradGradGradGradGradGrad
 Berny optimization.
 FormGI is forming the generalized inverse of G from B-inverse, IUseBI=4.
 Internal  Forces:  Max     0.024022176 RMS     0.002495630
 Search for a local minimum.
 Step number   1 out of a maximum of  188
 All quantities printed in internal units (Hartrees-Bohrs-Radians)
 Mixed Optimization -- RFO/linear search
 Second derivative matrix not updated -- first step.
 ITU=  0
     Eigenvalues ---    0.00230   0.00230   0.00230   0.00230   0.00230
     Eigenvalues ---    0.00230   0.00232   0.00339   0.00366   0.00625
     Eigenvalues ---    0.00921   0.01011   0.01543   0.01910   0.02126
     Eigenvalues ---    0.02169   0.02218   0.02244   0.02293   0.02344
     Eigenvalues ---    0.02370   0.02419   0.02584   0.03510   0.04566
     Eigenvalues ---    0.04833   0.05034   0.05220   0.05548   0.06000
     Eigenvalues ---    0.06362   0.06834   0.06952   0.06989   0.07175
     Eigenvalues ---    0.07267   0.07585   0.08354   0.09029   0.09401
     Eigenvalues ---    0.10412   0.12991   0.15879   0.15982   0.15998
     Eigenvalues ---    0.16000   0.16000   0.16000   0.16000   0.16000
     Eigenvalues ---    0.16000   0.16000   0.16000   0.16000   0.16000
     Eigenvalues ---    0.18427   0.20640   0.22000   0.22000   0.23456
     Eigenvalues ---    0.24992   0.26373   0.26745   0.28902   0.31286
     Eigenvalues ---    0.32546   0.32725   0.32794   0.33859   0.34066
     Eigenvalues ---    0.34106   0.34137   0.34152   0.34158   0.34271
     Eigenvalues ---    0.34701   0.34799   0.35033   0.35105   0.35144
     Eigenvalues ---    0.35692   0.38050   0.41739   0.42990   0.43773
     Eigenvalues ---    0.46880   0.48354   0.53377   0.53377   0.53749
     Eigenvalues ---    0.55123   0.55129   0.55791
 RFO step:  Lambda=-6.56077073D-03 EMin= 2.30000000D-03
 Linear search not attempted -- first point.
 Maximum step size (   0.300) exceeded in Quadratic search.
    -- Step size scaled by   0.570
 Iteration  1 RMS(Cart)=  0.08288316 RMS(Int)=  0.00596021
 Iteration  2 RMS(Cart)=  0.01688069 RMS(Int)=  0.00027283
 Iteration  3 RMS(Cart)=  0.00036089 RMS(Int)=  0.00020773
 Iteration  4 RMS(Cart)=  0.00000017 RMS(Int)=  0.00020773
 Variable       Old X    -DE/DX   Delta X   Delta X   Delta X     New X
                                 (Linear)    (Quad)   (Total)
    R1        2.93390  -0.00009   0.00000  -0.00019  -0.00019   2.93371
    R2        2.92128  -0.00001   0.00000   0.00000   0.00000   2.92128
    R3        2.07219  -0.00004   0.00000  -0.00007  -0.00007   2.07212
    R4        2.07065   0.00002   0.00000   0.00002   0.00003   2.07067
    R5        2.74688   0.00025   0.00000   0.00036   0.00036   2.74723
    R6        2.85470   0.00009   0.00000   0.00017   0.00017   2.85487
    R7        2.09856  -0.00003   0.00000  -0.00005  -0.00005   2.09851
    R8        2.76161  -0.00015   0.00000  -0.00023  -0.00023   2.76138
    R9        2.74292  -0.00013   0.00000  -0.00020  -0.00020   2.74273
   R10        2.88538   0.00001   0.00000   0.00003   0.00003   2.88540
   R11        2.09538   0.00007   0.00000   0.00012   0.00012   2.09550
   R12        2.07152   0.00005   0.00000   0.00008   0.00008   2.07160
   R13        2.07075   0.00003   0.00000   0.00005   0.00005   2.07080
   R14        2.06875   0.00005   0.00000   0.00008   0.00008   2.06883
   R15        2.61583   0.00036   0.00000   0.00041   0.00041   2.61624
   R16        2.64844  -0.00035   0.00000  -0.00036  -0.00036   2.64808
   R17        2.54383  -0.00127   0.00000  -0.00135  -0.00135   2.54248
   R18        2.05622  -0.00003   0.00000  -0.00005  -0.00005   2.05617
   R19        2.53577  -0.00117   0.00000  -0.00122  -0.00122   2.53456
   R20        1.95956   0.00253   0.00000   0.00340   0.00340   1.96296
   R21        2.61541   0.00032   0.00000   0.00038   0.00038   2.61579
   R22        2.05441  -0.00008   0.00000  -0.00013  -0.00013   2.05428
   R23        2.63124  -0.00024   0.00000  -0.00022  -0.00022   2.63102
   R24        2.05505   0.00001   0.00000   0.00002   0.00002   2.05507
   R25        2.06003  -0.00004   0.00000  -0.00006  -0.00006   2.05997
   R26        2.07569  -0.00006   0.00000  -0.00010  -0.00010   2.07559
   R27        2.09415   0.00002   0.00000   0.00004   0.00004   2.09419
   R28        2.07100   0.00005   0.00000   0.00008   0.00008   2.07107
   R29        3.24322  -0.00432   0.00000  -0.03145  -0.03145   3.21177
   R30        1.81718  -0.00221   0.00000  -0.00226  -0.00226   1.81491
   R31        1.81719   0.02402   0.00000   0.02456   0.02453   1.84172
   R32        3.02991   0.01101   0.00000   0.06481   0.06482   3.09473
   R33        1.83303  -0.01082   0.00000  -0.01142  -0.01142   1.82162
   R34        1.83303  -0.00905   0.00000  -0.00955  -0.00955   1.82348
    A1        1.82590   0.00012   0.00000   0.00026   0.00026   1.82616
    A2        1.93903  -0.00008   0.00000  -0.00031  -0.00031   1.93872
    A3        1.92235  -0.00002   0.00000  -0.00001  -0.00001   1.92234
    A4        1.94311   0.00001   0.00000   0.00014   0.00014   1.94325
    A5        1.96404  -0.00006   0.00000  -0.00016  -0.00016   1.96388
    A6        1.87062   0.00003   0.00000   0.00008   0.00008   1.87070
    A7        1.82551  -0.00016   0.00000  -0.00035  -0.00035   1.82516
    A8        1.96635   0.00006   0.00000   0.00046   0.00046   1.96680
    A9        1.90551   0.00003   0.00000  -0.00021  -0.00021   1.90530
   A10        1.94139   0.00020   0.00000   0.00098   0.00098   1.94237
   A11        1.93895  -0.00005   0.00000  -0.00058  -0.00058   1.93837
   A12        1.88632  -0.00008   0.00000  -0.00032  -0.00032   1.88601
   A13        1.84072   0.00010   0.00000   0.00018   0.00018   1.84090
   A14        1.99024  -0.00006   0.00000  -0.00016  -0.00016   1.99009
   A15        1.98752  -0.00004   0.00000  -0.00008  -0.00008   1.98743
   A16        1.80629  -0.00002   0.00000  -0.00013  -0.00013   1.80616
   A17        1.93549   0.00004   0.00000   0.00017   0.00017   1.93566
   A18        1.92378   0.00001   0.00000   0.00009   0.00009   1.92387
   A19        1.93237  -0.00002   0.00000  -0.00011  -0.00011   1.93227
   A20        1.98236   0.00001   0.00000   0.00004   0.00004   1.98240
   A21        1.88369  -0.00001   0.00000  -0.00005  -0.00005   1.88364
   A22        1.81528  -0.00003   0.00000  -0.00012  -0.00012   1.81516
   A23        1.92644   0.00002   0.00000   0.00005   0.00005   1.92649
   A24        1.96039   0.00003   0.00000   0.00019   0.00019   1.96058
   A25        1.92251   0.00000   0.00000  -0.00006  -0.00006   1.92245
   A26        1.95733  -0.00001   0.00000  -0.00006  -0.00006   1.95727
   A27        1.88208  -0.00001   0.00000  -0.00001  -0.00001   1.88207
   A28        2.11978  -0.00005   0.00000  -0.00018  -0.00018   2.11960
   A29        2.11339   0.00012   0.00000   0.00020   0.00020   2.11359
   A30        2.04976  -0.00007   0.00000  -0.00002  -0.00002   2.04974
   A31        2.10527   0.00027   0.00000   0.00051   0.00051   2.10578
   A32        2.14971   0.00020   0.00000   0.00090   0.00090   2.15061
   A33        2.02820  -0.00047   0.00000  -0.00141  -0.00141   2.02679
   A34        2.14352  -0.00008   0.00000  -0.00049  -0.00049   2.14303
   A35        2.06880  -0.00013   0.00000  -0.00035  -0.00035   2.06845
   A36        2.07084   0.00021   0.00000   0.00083   0.00084   2.07168
   A37        2.08395   0.00032   0.00000   0.00065   0.00065   2.08461
   A38        2.03589  -0.00042   0.00000  -0.00122  -0.00122   2.03467
   A39        2.16333   0.00010   0.00000   0.00056   0.00056   2.16389
   A40        2.07608  -0.00015   0.00000  -0.00021  -0.00021   2.07586
   A41        2.08757   0.00016   0.00000   0.00040   0.00040   2.08797
   A42        2.11954  -0.00001   0.00000  -0.00019  -0.00019   2.11935
   A43        2.10772  -0.00029   0.00000  -0.00044  -0.00044   2.10728
   A44        2.06217   0.00021   0.00000   0.00044   0.00044   2.06261
   A45        2.11320   0.00008   0.00000  -0.00000  -0.00000   2.11319
   A46        1.92747  -0.00006   0.00000  -0.00024  -0.00024   1.92723
   A47        1.95867  -0.00000   0.00000  -0.00003  -0.00003   1.95864
   A48        1.91146   0.00000   0.00000   0.00006   0.00006   1.91152
   A49        1.89204   0.00001   0.00000  -0.00007  -0.00007   1.89197
   A50        1.88036   0.00005   0.00000   0.00022   0.00022   1.88058
   A51        1.89184   0.00001   0.00000   0.00007   0.00007   1.89191
   A52        2.21716  -0.00119   0.00000  -0.00340  -0.00482   2.21234
   A53        2.21400  -0.00025   0.00000  -0.00020  -0.00154   2.21246
   A54        1.85175   0.00148   0.00000   0.00573   0.00437   1.85611
   A55        2.51972  -0.00187   0.00000  -0.00627  -0.00612   2.51361
   A56        1.83749   0.00943   0.00000   0.03241   0.03257   1.87006
   A57        1.91063  -0.00753   0.00000  -0.02563  -0.02547   1.88516
   A58        3.14299   0.00047   0.00000   0.02769   0.02723   3.17022
   A59        3.06560   0.00249   0.00000   0.16187   0.16217   3.22777
   A60        3.14007   0.00010   0.00000   0.00698   0.00699   3.14707
   A61        3.21819  -0.00360   0.00000  -0.23446  -0.23490   2.98329
    D1       -0.28453   0.00007   0.00000   0.00014   0.00014  -0.28439
    D2       -2.39549  -0.00010   0.00000  -0.00108  -0.00108  -2.39657
    D3        1.79183  -0.00005   0.00000  -0.00083  -0.00083   1.79100
    D4        1.81399   0.00011   0.00000   0.00029   0.00029   1.81429
    D5       -0.29697  -0.00007   0.00000  -0.00093  -0.00093  -0.29790
    D6       -2.39283  -0.00002   0.00000  -0.00068  -0.00068  -2.39351
    D7       -2.39920   0.00009   0.00000   0.00019   0.00019  -2.39902
    D8        1.77302  -0.00009   0.00000  -0.00104  -0.00104   1.77198
    D9       -0.32284  -0.00004   0.00000  -0.00079  -0.00079  -0.32363
   D10       -0.16110  -0.00002   0.00000  -0.00017  -0.00017  -0.16127
   D11        1.90061  -0.00002   0.00000  -0.00028  -0.00028   1.90032
   D12       -2.28160  -0.00001   0.00000  -0.00012  -0.00012  -2.28172
   D13       -2.25690   0.00000   0.00000  -0.00002  -0.00002  -2.25692
   D14       -0.19519  -0.00000   0.00000  -0.00013  -0.00013  -0.19533
   D15        1.90579   0.00002   0.00000   0.00002   0.00002   1.90581
   D16        1.92577   0.00000   0.00000  -0.00011  -0.00011   1.92567
   D17       -2.29570  -0.00001   0.00000  -0.00022  -0.00022  -2.29592
   D18       -0.19472   0.00001   0.00000  -0.00006  -0.00006  -0.19479
   D19        0.64961  -0.00003   0.00000   0.00008   0.00008   0.64969
   D20        2.84307  -0.00005   0.00000   0.00000   0.00000   2.84308
   D21        2.77704   0.00006   0.00000   0.00095   0.00095   2.77799
   D22       -1.31269   0.00004   0.00000   0.00088   0.00088  -1.31181
   D23       -1.40399   0.00005   0.00000   0.00082   0.00082  -1.40317
   D24        0.78947   0.00003   0.00000   0.00074   0.00074   0.79022
   D25       -1.75108  -0.00003   0.00000  -0.00053  -0.00053  -1.75160
   D26        1.36555  -0.00003   0.00000  -0.00060  -0.00060   1.36495
   D27        2.48874  -0.00000   0.00000  -0.00104  -0.00104   2.48770
   D28       -0.67782  -0.00001   0.00000  -0.00111  -0.00111  -0.67893
   D29        0.35581  -0.00001   0.00000  -0.00072  -0.00072   0.35509
   D30       -2.81075  -0.00002   0.00000  -0.00079  -0.00079  -2.81154
   D31       -0.75882  -0.00001   0.00000  -0.00025  -0.00025  -0.75907
   D32        1.31377  -0.00003   0.00000  -0.00037  -0.00037   1.31340
[...]
 1600,-0.00007489,-0.00009257,0.00000402,-0.00007310,0.00003335,-0.0000
 7212,0.00002018,0.00001889,-0.00039607,0.00016029,-0.00002729,0.340918
 79,0.00012214,-0.00011775,-0.00020212,-0.00029724,-0.00052348,0.000413
 86,0.00044401,0.00031209,-0.00009138,-0.00018348,-0.00016034,-0.000105
 53,-0.00001522,0.00008700,0.00006519,0.00056730,0.00056453,-0.00039185
 ,-0.00047158,-0.00370749,0.00114283,0.01499062,-0.00542614,0.00437452,
 0.00069505,0.00207353,-0.00050638,0.00088141,-0.00048877,0.00003463,-0
 .00025551,-0.00007690,0.00006411,-0.00005328,-0.00012794,0.00018201,0.
 00009487,0.00008330,-0.00008476,-0.00001112,-0.00001839,-0.00008079,0.
 00004536,0.00007088,0.00001523,0.00000693,-0.00001584,-0.00000294,0.00
 007185,0.00000829,0.00000728,0.00004425,0.00008390,-0.00003261,0.00005
 212,-0.00000027,-0.00000246,-0.00005766,0.00001723,0.00001350,-0.00036
 277,0.00051833,-0.00026946,-0.00180048,-0.00476172,-0.00445818,0.00043
 450,0.00006572,-0.00009748,0.00003096,0.00004328,0.00006391,0.00001777
 ,0.00008137,-0.00002861,0.00003822,-0.00000503,-0.00001567,0.00017964,
 -0.00006854,-0.00001638,-0.19637917,0.17311685,-0.00001066,-0.00002297
 ,-0.00001679,0.00002035,0.00013236,-0.00012692,0.00002912,-0.00003597,
 0.00013330,-0.00004523,0.00002311,-0.00001647,0.00001365,0.00000645,0.
 00001369,-0.00020822,-0.00039144,-0.00028003,-0.00010974,0.00099920,-0
 .00014839,-0.00441031,0.00389229,0.00683703,-0.00019400,-0.00023694,0.
 00021998,-0.00014592,0.00001669,-0.00038439,0.00007774,0.00005255,0.00
 000305,-0.00004604,0.00000326,-0.00012886,-0.00002018,-0.00004313,0.00
 002156,0.00000419,-0.00003341,0.00002561,0.00001212,0.00002412,-0.0000
 1247,-0.00000081,-0.00000482,0.00000424,0.00000018,0.00000460,0.000003
 21,0.00000022,-0.00000995,0.00000862,-0.00000576,0.00000240,0.00000387
 ,0.00000768,-0.00000111,0.00003024,0.00010248,-0.00013743,-0.00019289,
 -0.00044965,-0.00289889,-0.01640608,-0.00022200,-0.00011682,-0.0002164
 0,0.00001884,0.00003844,-0.00001583,-0.00002405,-0.00004554,0.00002572
 ,0.00000621,-0.00000679,0.00001979,-0.00003551,-0.00000338,-0.00007224
 ,0.08381752,0.12665664,0.66542126,-0.00000095,-0.00000718,-0.00000568,
 -0.00002598,0.00010549,-0.00003363,0.00003359,-0.00003741,0.00003293,-
 0.00002962,0.00000030,-0.00000808,-0.00000485,0.00000681,0.00000345,-0
 .00013522,-0.00025096,0.00003842,0.00011627,0.00053990,-0.00016916,-0.
 00240992,0.00243595,0.00016690,-0.00039642,-0.00013277,0.00010748,-0.0
 0007529,0.00016034,-0.00013544,0.00007794,0.00006282,-0.00002394,-0.00
 001080,0.00000588,-0.00003542,-0.00000776,-0.00003037,0.00001840,-0.00
 000049,-0.00000309,0.00000441,-0.00000132,-0.00000110,-0.00000545,0.00
 000280,-0.00000553,0.00000173,0.00000319,0.00000396,0.00000074,-0.0000
 0018,0.00000169,0.00000231,0.00000383,-0.00000465,-0.00000113,-0.00000
 028,-0.00000465,0.00000753,0.00004968,0.00005373,0.00000191,0.00288400
 ,-0.00376868,-0.00261804,-0.00010355,-0.00010830,-0.00011510,0.0000036
 2,0.00002196,-0.00000390,-0.00001396,-0.00001682,0.00000805,0.00000954
 ,-0.00000511,0.00000732,-0.00003353,0.00002043,-0.00001903,-0.16241022
 ,0.03976127,-0.23911360,0.15201984,-0.00000557,0.00001799,0.00001037,-
 0.00001759,0.00001789,-0.00001454,0.00000256,-0.00004917,-0.00000226,0
 .00001408,0.00001035,-0.00000748,-0.00000251,-0.00000338,-0.00000564,0
 .00023746,-0.00005443,0.00010940,-0.00003579,-0.00031873,0.00001892,0.
 00308504,-0.00125701,-0.00038350,0.00042390,0.00035559,-0.00005382,-0.
 00017446,-0.00018685,0.00004228,0.00004961,0.00010356,-0.00002124,0.00
 002449,0.00003383,0.00000383,-0.00000546,-0.00001665,0.00001685,-0.000
 00107,-0.00000140,0.00000396,-0.00000206,-0.00000926,-0.00000469,0.000
 00126,-0.00000246,0.00000085,-0.00000341,0.00000043,-0.00000225,-0.000
 00315,-0.00000410,0.00000565,0.00000309,-0.00000201,0.00000025,-0.0000
 0292,-0.00000602,-0.00000328,-0.00000608,-0.00004652,0.00019097,-0.004
 20045,0.00230380,0.00224817,-0.00003910,0.00003890,-0.00007409,-0.0000
 0847,-0.00000366,0.00000326,-0.00000517,-0.00000872,-0.00000050,0.0000
 0257,-0.00000341,-0.00000107,0.00004453,-0.00002462,0.00002069,0.05064
 659,-0.02286517,0.04275239,-0.03756729,0.01934561,0.00002038,-0.000002
 37,-0.00002468,-0.00006820,-0.00006590,0.00008017,0.00006015,0.0000288
 3,-0.00007213,-0.00001042,-0.00002916,-0.00001256,-0.00001070,0.000009
 26,0.00000516,0.00005904,-0.00001126,0.00000563,-0.00020074,-0.0002781
 6,0.00009495,0.00230113,-0.00183304,0.00007194,0.00013354,0.00022112,-
 0.00007173,0.00014564,-0.00007679,0.00004887,-0.00001219,-0.00000498,0
 .00000789,0.00001700,-0.00001091,0.00008097,0.00001770,0.00001379,-0.0
 0000726,-0.00000365,0.00000798,-0.00001856,-0.00000087,-0.00000434,0.0
 0000245,0.00000317,-0.00000239,-0.00000214,0.00000968,-0.00000004,-0.0
 0000147,0.00000492,0.00001611,-0.00000567,0.00001125,-0.00000211,-0.00
 000198,-0.00001065,-0.00000261,0.00000793,-0.00006930,0.00009385,0.000
 00012,-0.00439359,0.00340212,-0.00005448,-0.00007639,0.00005264,0.0000
 8108,-0.00000557,-0.00000545,0.00002030,0.00000921,0.00002816,-0.00001
 305,0.00000686,-0.00000117,-0.00000882,0.00002542,-0.00001172,0.000013
 56,-0.19933181,0.01681973,-0.41244271,0.22121454,-0.02519979,0.4344770
 5,0.00003818,-0.00001033,-0.00005605,-0.00014835,0.00001217,0.00007406
 ,0.00015896,0.00001284,-0.00001351,-0.00007763,-0.00004747,-0.00003935
 ,-0.00002295,0.00002668,0.00001469,-0.00007996,-0.00032460,0.00009811,
 -0.00026638,0.00013157,-0.00002037,-0.00075959,0.00097174,-0.00087388,
 -0.00015565,0.00032214,-0.00016351,0.00005657,0.00009793,0.00005664,0.
 00007938,0.00009803,-0.00002460,-0.00001014,-0.00001385,0.00003607,0.0
 0001636,-0.00001844,0.00001301,-0.00000645,-0.00000070,-0.00002576,-0.
 00000169,-0.00000237,-0.00000467,0.00001016,-0.00001499,0.00000053,0.0
 0002411,0.00000804,0.00000054,0.00001041,0.00002628,-0.00000527,0.0000
 2137,-0.00000736,-0.00000545,-0.00001789,-0.00001656,-0.00000490,0.000
 01730,0.00011830,-0.00011180,-0.00059148,0.00018724,0.00258753,-0.0001
 9513,-0.00004561,0.00009353,0.00000784,0.00002856,0.00001863,-0.000007
 48,0.00000959,-0.00000309,0.00002079,-0.00000876,-0.00000183,0.0000078
 7,0.00000714,-0.00000434,-0.15096901,0.13385166,0.15080925,0.01200645,
 -0.01367544,-0.02053622,0.14527230,-0.00005211,0.00005905,0.00008757,0
 .00013620,0.00008846,-0.00014853,-0.00017820,-0.00009908,0.00000675,0.
 00009571,0.00006604,0.00004596,0.00001005,-0.00004053,-0.00003132,0.00
 011498,0.00006895,-0.00001581,0.00044888,0.00030330,-0.00001427,-0.000
 20934,0.00098745,-0.00017267,0.00005294,-0.00036902,0.00003006,-0.0003
 3402,0.00000491,0.00002684,0.00002833,0.00003125,-0.00002418,0.0000285
 7,0.00004648,-0.00003912,-0.00003186,-0.00000842,0.00002137,0.00000540
 ,0.00001070,0.00002958,-0.00001813,-0.00003147,-0.00000006,-0.00000456
 ,0.00000939,0.00000010,-0.00003336,-0.00000525,-0.00000270,-0.00001662
 ,-0.00003388,0.00001200,-0.00002074,0.00000152,0.00000138,0.00001937,0
 .00000723,0.00000235,0.00006485,-0.00024037,0.00000285,0.00221233,-0.0
 0273365,-0.00011082,0.00011912,0.00007372,0.00013603,-0.00001801,-0.00
 003085,-0.00002176,0.00000174,-0.00001941,0.00000458,-0.00001806,0.000
 00441,0.00000090,-0.00001863,0.00000035,0.00001226,0.12219809,-0.13530
 800,-0.15970724,-0.00256784,0.00357785,0.00717377,-0.11736667,0.139739
 55,-0.00006789,0.00004921,0.00012712,0.00021030,0.00013524,-0.00014782
 ,-0.00028847,-0.00009041,-0.00002263,0.00013541,0.00007807,0.00008212,
 0.00001123,-0.00005336,-0.00004316,-0.00020559,0.00022855,0.00003782,0
 .00071557,0.00089016,-0.00028454,-0.00549519,0.00293163,-0.00214554,-0
 .00061605,-0.00106542,0.00029973,-0.00020915,0.00030564,-0.00007061,-0
 .00003042,-0.00010116,0.00003576,0.00003487,0.00004022,-0.00003681,-0.
 00003476,0.00000937,0.00000357,0.00000562,0.00003227,0.00003077,-0.000
 02684,-0.00004080,0.00000833,-0.00000917,0.00001890,-0.00000086,-0.000
 04238,-0.00000980,-0.00000294,-0.00002359,-0.00004217,0.00000759,-0.00
 003240,0.00000230,0.00000091,0.00003327,0.00001714,-0.00000363,0.00009
 674,-0.00010489,0.00021019,0.01018743,-0.00529195,0.00548913,0.0002365
 5,-0.00001054,0.00011238,-0.00002106,-0.00004666,-0.00003276,0.0000090
 1,-0.00001419,0.00000226,-0.00002974,0.00001065,-0.00000065,-0.0001001
 5,0.00005412,0.00002027,0.10891116,-0.13223448,-0.23149823,0.01959180,
 -0.01906514,-0.02273141,-0.12987384,0.14906946,0.25234317,-0.00002554,
 -0.00000825,0.00002596,0.00011701,-0.00000279,-0.00007345,-0.00012609,
 0.00000892,0.00004591,0.00005221,0.00003725,0.00002425,0.00002511,-0.0
 0001611,-0.00000050,-0.00000420,0.00019750,-0.00003744,0.00033365,0.00
 009234,-0.00003721,-0.00074713,0.00037121,-0.00015680,-0.00016681,-0.0
 0031998,0.00008134,-0.00000374,0.00004002,-0.00001021,-0.00003585,-0.0
 0009728,0.00001608,-0.00000285,0.00000549,-0.00005622,-0.00001394,0.00
 001520,-0.00001332,0.00000673,-0.00001592,0.00002461,0.00001196,0.0000
 1905,-0.00000192,-0.00000921,0.00001237,-0.00000042,-0.00001432,-0.000
 00664,0.00000007,-0.00000703,-0.00002216,0.00000577,-0.00001899,0.0000
 0838,0.00000743,0.00001702,0.00000516,-0.00000561,-0.00001857,-0.00005
 638,0.00001053,0.00138842,-0.00095992,0.00030930,0.00010994,-0.0000125
 6,-0.00007094,-0.00000045,-0.00001832,-0.00001589,0.00000470,-0.000013
 96,0.00000759,-0.00001866,0.00000770,0.00000498,-0.00002735,0.00000177
 ,-0.00000224,-0.00191462,0.00770614,0.00856511,-0.00146467,0.00089730,
 0.00041255,-0.00512372,-0.00507638,0.00046443,0.43206140,0.00003519,-0
 .00005014,-0.00005654,-0.00009920,-0.00008891,0.00011406,0.00012881,0.
 00008869,-0.00002054,-0.00006667,-0.00005353,-0.00002947,-0.00000855,0
 .00002589,0.00002137,-0.00006029,0.00001557,-0.00003567,-0.00019428,-0
 .00033668,0.00011105,0.00081493,-0.00060576,0.00026134,-0.00006670,0.0
 0036331,-0.00009570,0.00022672,-0.00000867,-0.00000021,-0.00004962,-0.
 00003579,0.00001423,-0.00001962,-0.00003929,0.00004250,0.00002506,0.00
 001451,-0.00002284,-0.00000419,-0.00000156,-0.00002577,0.00001239,0.00
 002111,0.00000153,0.00000137,-0.00000428,-0.00000089,0.00002544,0.0000
 0344,0.00000202,0.00001246,0.00002739,-0.00001237,0.00001482,-0.000000
 69,-0.00000136,-0.00001868,-0.00000484,0.00000403,-0.00005889,0.000122
 81,0.00002208,-0.00185961,0.00105014,-0.00050114,-0.00003685,-0.000038
 10,-0.00004249,0.00001179,0.00001732,0.00001819,0.00000204,0.00002080,
 -0.00000570,0.00001152,-0.00000272,-0.00000229,0.00000990,0.00000287,-
 0.00000159,0.00772166,-0.00152862,-0.00934098,0.00091067,-0.00085646,0
 .00003260,-0.00518628,-0.00916801,0.00151028,0.12649562,0.63813975,0.0
 0003609,-0.00001965,-0.00007127,-0.00010423,-0.00003432,0.00004921,0.0
 0014134,0.00003130,0.00004692,-0.00007127,-0.00003154,-0.00005005,-0.0
 0000284,0.00002790,0.00002596,0.00005140,-0.00015602,0.00002077,-0.000
 36660,-0.00028803,0.00005657,0.00152084,-0.00086400,0.00049744,0.00020
 136,0.00043657,-0.00014272,0.00009523,-0.00009717,0.00004584,0.0000416
 7,0.00005183,-0.00002057,-0.00002142,-0.00001191,-0.00001009,0.0000139
 9,-0.00001205,0.00001009,-0.00000272,-0.00002966,-0.00001093,0.0000148
 1,0.00002641,-0.00001218,0.00000586,-0.00001304,0.00000081,0.00002167,
 0.00000628,0.00000047,0.00001190,0.00001656,0.00000128,0.00001452,-0.0
 0000004,0.00000114,-0.00001308,-0.00001140,-0.00000710,-0.00004275,0.0
 0006062,-0.00011867,-0.00323477,0.00193910,-0.00124914,-0.00013401,0.0
 0000247,-0.00006461,0.00001402,0.00002496,0.00001309,-0.00000796,-0.00
 000310,0.00000395,0.00001279,-0.00000540,0.00000298,0.00004116,-0.0000
 2380,-0.00002051,0.00878025,-0.00954522,-0.00729902,0.00045555,-0.0000
 0224,0.00081010,0.00000968,0.00183161,-0.00622123,-0.23674438,-0.00184
 091,0.14720544,-0.00000202,0.00002702,0.00001234,-0.00001770,0.0000454
 1,-0.00000681,0.00000992,-0.00004137,-0.00002238,0.00000047,0.00000105
 ,0.00000176,-0.00001143,-0.00000400,-0.00000901,0.00000605,-0.00008009
 ,0.00002530,-0.00002147,0.00013146,-0.00004195,-0.00011934,0.00010943,
 -0.00005495,0.00004697,-0.00005686,0.00002006,-0.00007386,0.00000036,-
 0.00000106,0.00002732,0.00004950,-0.00001015,0.00000955,0.00001235,0.0
 0001552,-0.00000251,-0.00001322,0.00001685,-0.00000129,0.00001020,-0.0
 0000283,-0.00001342,-0.00002131,0.00000055,0.00000434,-0.00000447,0.00
 000022,-0.00000340,0.00000251,-0.00000086,-0.00000209,0.00000125,0.000
 00140,0.00000364,-0.00000479,-0.00000384,-0.00000046,0.,0.00000226,0.0
 0001518,-0.00002001,0.00000523,0.00040768,-0.00011450,0.00011739,-0.00
 002764,0.00002841,0.00005728,-0.00000463,0.00000100,0.00000103,-0.0000
 0265,0.00000052,-0.00000201,0.00000484,-0.00000329,-0.00000176,-0.0000
 0081,0.00000236,0.00000254,-0.00142646,0.00042720,0.00196528,-0.000108
 96,0.00010084,0.00013870,0.00233668,0.00022196,-0.00392839,-0.03663457
 ,0.01999298,0.02452729,0.03719176,-0.00001058,0.00001683,0.00001380,0.
 00003207,0.00002740,-0.00003909,-0.00004092,-0.00002932,0.00001258,0.0
 0002089,0.00002077,0.00000649,0.00000552,-0.00000647,-0.00000425,0.000
 03241,0.00000824,0.00000893,0.00005262,0.00006861,-0.00002505,-0.00017
 473,0.00011494,-0.00002788,0.00000975,-0.00009345,0.00001690,-0.000052
 94,0.00000250,0.00000107,0.00001084,0.00000203,-0.00000379,0.00000509,
 0.00001442,-0.00001824,-0.00000723,-0.00000472,0.00000863,0.00000191,-
 0.00000493,0.00000957,-0.00000054,-0.00000258,-0.00000241,-0.00000077,
 0.00000071,0.00000043,-0.00000865,-0.00000104,-0.00000089,-0.00000382,
 -0.00001002,0.00000574,-0.00000493,0.00000050,0.00000135,0.00000710,0.
 00000267,-0.00000270,0.00000915,-0.00002203,-0.00000583,0.00035484,-0.
 00022432,0.00003474,0.00001871,0.00001307,-0.00000904,-0.00000366,-0.0
 0000509,-0.00000563,-0.00000087,-0.00000846,0.00000265,-0.00000371,0.0
 0000096,0.00000140,-0.00000107,-0.00000295,-0.00000144,-0.00099600,0.0
 0086189,0.00072310,0.00016094,-0.00005745,-0.00019922,0.00114490,-0.00
 196103,-0.00093545,-0.02933568,-0.53527791,-0.03613838,0.02129491,0.55
 023255,-0.00000250,0.00000207,0.00000933,0.00000605,-0.00002054,0.0000
 1686,-0.00001057,0.00000914,-0.00002845,0.00000757,-0.00000413,0.00001
 090,-0.00000227,-0.00000280,-0.00000513,0.00000074,0.00003359,-0.00001
 212,0.00000438,-0.00004429,0.00002288,-0.00000835,-0.00001949,0.000008
 66,0.00000145,0.00001011,-0.00000413,0.00000974,0.00000145,-0.00000236
 ,-0.00001349,-0.00000893,0.00000226,0.00000344,-0.00000700,0.00002085,
 0.00000158,0.00000703,-0.00000873,0.00000022,0.00001225,-0.00000405,-0
 .00000359,-0.00000776,0.00000749,-0.00000061,0.00000291,-0.00000055,-0
 .00000203,-0.00000139,0.00000091,-0.00000077,0.00000219,-0.00000390,-0
 .00000016,-0.00000068,-0.00000158,-0.00000142,0.00000260,0.00000412,0.
 00000258,0.00000447,0.00001449,0.00005198,-0.00001586,-0.00001582,0.00
 002416,-0.00001332,0.00001964,-0.00000300,-0.00000344,0.00000085,0.000
 00343,0.00000815,-0.00000381,-0.00000013,0.00000123,-0.00000245,-0.000
 00030,0.00000242,0.00000545,0.00188692,-0.00019122,-0.00248743,0.00014
 053,-0.00056819,-0.00008547,-0.00320982,-0.00118337,0.00368213,0.01947
 158,-0.06200240,-0.02043188,-0.01969672,0.04168049,0.01756919,0.000006
 36,-0.00000016,-0.00000431,-0.00003121,0.00000116,0.00002696,0.0000329
 1,-0.00000201,-0.00002264,-0.00001348,-0.00001064,-0.00000429,-0.00000
 808,0.00000453,-0.00000143,-0.00001287,-0.00002717,0.00000419,-0.00004
 785,-0.00002550,0.00001525,0.00009236,-0.00006643,0.00000705,-0.000004
 99,0.00005779,-0.00001562,0.00002102,0.00000908,-0.00000993,-0.0000050
 4,0.00001258,0.00000142,0.00000197,-0.00000142,0.00002130,0.00000543,-
 0.00000276,0.00000067,-0.00000218,0.00000834,-0.00000751,-0.00000331,-
 0.00000726,0.00000235,0.00000196,-0.00000278,0.00000032,0.00000367,0.0
 0000175,0.00000006,0.00000161,0.00000678,-0.00000236,0.00000566,-0.000
 00336,-0.00000270,-0.00000429,0.00000136,0.00000308,0.00000465,0.00003
 792,0.00002864,-0.00016989,0.00007964,0.00003812,-0.00000944,0.0000019
 7,0.00001452,-0.00000091,0.00000454,0.00000517,-0.00000080,0.00000540,
 -0.00000316,0.00000595,-0.00000246,-0.00000187,0.00000291,0.00000538,0
 .00000481,0.00074971,-0.00057576,-0.00040827,0.00002320,0.00022267,0.0
 0013942,-0.00165124,0.00020598,0.00039170,-0.38774982,-0.14872395,0.20
 473462,-0.00158968,0.00748446,0.00133938,0.39034573,-0.00000333,0.0000
 1462,0.00000476,0.00000258,0.00001531,-0.00001862,-0.00000595,-0.00002
 444,0.00000798,0.00000675,0.00000824,0.00000003,-0.00000039,-0.0000013
 5,-0.00000368,0.00005074,-0.00007339,0.00002371,-0.00010451,0.00000658
 ,-0.00000937,0.00020277,-0.00007602,0.00004636,0.00014919,0.00006333,-
 0.00000929,-0.00007953,-0.00003697,0.00001256,0.00003713,0.00004588,-0
 .00001326,0.00000421,0.00001010,-0.00000735,-0.00000478,-0.00000811,0.
 00000878,0.00000007,-0.00000058,0.00000367,-0.00000250,-0.00000557,-0.
 00000050,0.00000167,-0.00000163,0.00000066,-0.00000349,-0.00000003,-0.
 00000030,-0.00000123,-0.00000400,0.00000345,-0.00000031,-0.00000062,-0
 .00000039,0.00000116,-0.00000101,-0.00000191,0.00003507,-0.00002587,-0
 .00004558,-0.00035512,0.00032287,-0.00016630,-0.00002944,0.00000607,0.
 00001035,-0.00000221,0.00000022,-0.00000246,-0.00000213,-0.00000567,0.
 00000106,0.00000050,-0.00000004,0.00000011,0.00001710,-0.00000937,-0.0
 0000289,0.00089733,-0.00278777,-0.00229080,0.00025961,-0.00002835,-0.0
 0015858,-0.00031541,0.00496839,0.00372321,-0.09995910,-0.09181165,0.04
 467228,-0.04209680,-0.01367632,0.02231470,0.14130034,0.10311715,-0.000
 00563,-0.00000249,0.00001075,0.00001042,-0.00000525,0.00000290,-0.0000
 1666,0.00000203,-0.00001850,0.00000953,0.00000063,0.00000903,-0.000000
 04,-0.00000387,-0.00000373,-0.00000441,0.00002895,-0.00000783,0.000037
 96,0.00000086,0.00000224,-0.00008288,0.00006037,-0.00002130,-0.0000027
 4,-0.00002095,0.00001711,-0.00000955,-0.00000027,-0.00001360,-0.000011
 81,-0.00000906,0.00000594,0.00000437,-0.00000137,0.00001193,-0.0000007
 5,0.00000452,-0.00000552,0.00000128,0.00000765,0.00000017,-0.00000141,
 -0.00000370,0.00000335,-0.00000166,0.00000352,-0.00000028,-0.00000246,
 -0.00000151,0.00000040,-0.00000129,-0.00000011,-0.00000219,-0.00000130
 ,-0.00000025,-0.00000034,-0.00000101,0.00000128,0.00000397,0.00001715,
 -0.00000902,0.00003364,0.00021946,-0.00019086,0.00004390,0.00001758,-0
 .00000208,0.00000745,-0.00000294,-0.00000361,-0.00000035,0.00000203,0.
 00000409,-0.00000239,-0.00000086,0.00000071,-0.00000095,-0.00000298,0.
 00000483,0.00000883,-0.00014484,-0.00149592,-0.00102601,0.00048362,-0.
 00001813,-0.00025403,0.00116598,0.00297643,0.00074955,0.20774908,0.071
 88358,-0.11306209,-0.00312830,-0.00510860,0.00170185,-0.20629492,-0.06
 810239,0.11180609\\-0.00000045,0.00000052,0.00000052,0.00000108,0.0000
 0067,-0.00000009,-0.00000033,0.00000037,0.00000062,-0.00000083,0.00000
 110,0.00000052,-0.00000036,0.00000040,0.00000178,0.00000026,-0.0000021
 6,0.00000095,0.00000030,0.00000395,-0.00000027,-0.00001213,0.00000164,
 -0.00000044,0.00000042,-0.00000308,-0.00000078,-0.00000002,-0.00000025
 ,-0.00000020,0.00000044,0.00000175,-0.00000107,0.00000040,0.00000027,0
 .00000048,-0.00000004,0.00000015,0.00000049,-0.00000034,0.00000002,0.0
 0000069,-0.00000067,0.00000028,0.00000091,-0.00000036,0.00000106,0.000
 00129,-0.00000069,0.00000099,0.00000113,0.00000022,0.00000076,0.000001
 00,0.00000007,0.00000081,0.00000138,0.00000052,0.00000010,0.00000041,0
 .00000050,-0.00000044,-0.00000088,0.00001535,-0.00000627,-0.00000260,-
 0.00000174,-0.00000043,-0.00000060,0.00000089,0.00000027,0.00000023,0.
 00000069,0.00000072,0.00000066,0.00000103,0.00000089,0.00000064,0.0000
 0059,-0.00000030,-0.00000072,-0.00000552,0.00000352,-0.00000518,0.0000
 0431,-0.00000549,0.00000155,0.00000264,-0.00000032,-0.00000286,-0.0000
 0509,0.00000151,0.00000532,-0.00000139,-0.00000179,-0.00000251,0.00000
 022,-0.00000121,-0.00000236\\\@


 IF AT FIRST YOU DON'T SUCCEED, TRY LOOKING IN 
 THE WASTEBASKET FOR THE DIRECTIONS.
 Job cpu time:       0 days 15 hours  0 minutes 31.6 seconds.
 Elapsed time:       0 days  0 hours 32 minutes 13.4 seconds.
 File lengths (MBytes):  RWF=    908 Int=      0 D2E=      0 Chk=     28 Scr=      8
 Normal termination of Gaussian 16 at Tue Jan 24 17:59:23 2023.
